loop_
_symmetry_equiv_pos_site_id
_symmetry_equiv_pos_as_xyz
1 'x, -y+1/2, z+1/2'
2 '-x, -y, -z'
3 '-x, y+1/2, -z+1/2'
4 'x, y, z'
loop_
_atom_type_symbol
_atom_type_oxidation_number
Mo6+ 6
Te4+ 4
O2- -2
loop_
_publ_author_name
'Arnaud, Y.'
'Averbuch-Pouchot, M.T.'
'Durif, A.'
'Guidot, J.'
_cell_length_a 4.286
_cell_length_b 8.618
_cell_length_c 15.945
_cell_angle_alpha 90.
_cell_angle_beta 95.68
_cell_angle_gamma 90.
_cell_volume 586.06
_cell_formula_units_Z 4
_symmetry_space_group_name_H-M 'P 1 21/c 1'
_symmetry_Int_Tables_number 14
_refine_ls_R_factor_all 0.037
loop_
_atom_site_aniso_label
_atom_site_aniso_type_symbol
_atom_site_aniso_beta_11
_atom_site_aniso_beta_22
_atom_site_aniso_beta_33
_atom_site_aniso_beta_12
_atom_site_aniso_beta_13
_atom_site_aniso_beta_23
Mo1 Mo6+ 0.01320(24) 0.00121(5) 0.00056(2) 0.00027(8) 0.00020(5) 0.00002(2)
Te1 Te4+ 0.00999(18) 0.00122(4) 0.00062(1) 0.00038(6) 0.00029(3) -.00001(2)
Te2 Te4+ 0.01107(18) 0.00144(4) 0.00056(1) 0.00022(6) 0.00083(3) 0.00011(2)
O1 O2- 0.032(3) 0.00195(51) 0.00105(18) 0.0001(11) -.00012(59) 0.00016(25)
O2 O2- 0.021(3) 0.00153(48) 0.00067(15) 0.00258(89) 0.00010(49) 0.00055(22)
O3 O2- 0.009(2) 0.00211(48) 0.00079(15) -.00064(81) 0.00053(43) 0.00059(22)
O4 O2- 0.009(2) 0.00303(53) 0.00098(16) -.00090(83) 0.00023(45) -.00100(24)
O5 O2- 0.010(2) 0.00222(51) 0.00107(17) -.00017(80) 0.00064(46) -.00076(23)
O6 O2- 0.014(2) 0.00541(68) 0.00117(18) 0.0000(10) -.00012(52) -.00001(29)
O7 O2- 0.017(2) 0.00220(49) 0.00056(15) 0.00044(88) 0.00021(45) -.00009(22)
#End of TTdata_73-ICSD
loop_
_atom_site_label
_atom_site_type_symbol
_atom_site_fract_x
_atom_site_fract_y
_atom_site_fract_z
_atom_site_B_iso_or_equiv
Mo1       Mo        0.12276        0.63474        0.56805        1.000          
Mo2       Mo        0.12276        0.86526        0.06805        1.000          
Mo3       Mo        0.87724        0.13474        0.93195        1.000          
Mo4       Mo        0.87724        0.36526        0.43195        1.000          
O1        O         0.0278         0.1072         0.0502         1.000          
O2        O         0.0278         0.3928         0.5502         1.000          
O3        O         0.0323         0.6678         0.0648         1.000          
O4        O         0.0323         0.8322         0.5648         1.000          
O5        O         0.0578         0.603          0.6852         1.000          
O6        O         0.0578         0.897          0.1852         1.000          
O7        O         0.0904         0.6412         0.8562         1.000          
O8        O         0.0904         0.8588         0.3562         1.000          
O9        O         0.4276         0.1594         0.1928         1.000          
O10       O         0.4276         0.3406         0.6928         1.000          
O11       O         0.4302         0.0186         0.6891         1.000          
O12       O         0.4302         0.4814         0.1891         1.000          
O13       O         0.4812         0.1271         0.9323         1.000          
O14       O         0.4812         0.3729         0.4323         1.000          
O15       O         0.5188         0.6271         0.5677         1.000          
O16       O         0.5188         0.8729         0.0677         1.000          
O17       O         0.5698         0.5186         0.8109         1.000          
O18       O         0.5698         0.9814         0.3109         1.000          
O19       O         0.5724         0.6594         0.3072         1.000          
O20       O         0.5724         0.8406         0.8072         1.000          
O21       O         0.9096         0.1412         0.6438         1.000          
O22       O         0.9096         0.3588         0.1438         1.000          
O23       O         0.9422         0.103          0.8148         1.000          
O24       O         0.9422         0.397          0.3148         1.000          
O25       O         0.9677         0.1678         0.4352         1.000          
O26       O         0.9677         0.3322         0.9352         1.000          
O27       O         0.9722         0.6072         0.4498         1.000          
O28       O         0.9722         0.8928         0.9498         1.000          
Te1       Te        0.15406        0.04167        0.2727         1.000          
Te2       Te        0.15406        0.45833        0.7727         1.000          
Te3       Te        0.30688        0.19557        0.60936        1.000          
Te4       Te        0.30688        0.30443        0.10936        1.000          
Te5       Te        0.69312        0.69557        0.89064        1.000          
Te6       Te        0.69312        0.80443        0.39064        1.000          
Te7       Te        0.84594        0.54167        0.2273         1.000          
Te8       Te        0.84594        0.95833        0.7273         1.000          


#END