loop_
_symmetry_equiv_pos_site_id
_symmetry_equiv_pos_as_xyz
1 'y+1/2, x+1/2, -z'
2 '-y, x+1/2, -z'
3 'y+1/2, -x, -z'
4 '-y, -x, -z'
5 'x+1/2, y+1/2, -z'
6 '-x, y+1/2, -z'
7 'x+1/2, -y, -z'
8 '-x, -y, -z'
9 '-y+1/2, -x+1/2, z'
10 'y, -x+1/2, z'
11 '-y+1/2, x, z'
12 'y, x, z'
13 '-x+1/2, -y+1/2, z'
14 'x, -y+1/2, z'
15 '-x+1/2, y, z'
16 'x, y, z'
loop_
_atom_type_symbol
_atom_type_oxidation_number
Ce3+ 3
Bi3+ 3
S2- -2
O2- -2
loop_
_publ_author_name
'Ceolin, R.'
'Rodier, N.'
_cell_length_a 4.008(4)
_cell_length_b 4.008(4)
_cell_length_c 13.50(1)
_cell_angle_alpha 90.
_cell_angle_beta 90.
_cell_angle_gamma 90.
_cell_volume 216.86
_cell_formula_units_Z 2
_symmetry_space_group_name_H-M 'P 4/n m m Z'
_symmetry_Int_Tables_number 129
_refine_ls_R_factor_all 0.055
loop_
_atom_site_aniso_label
_atom_site_aniso_type_symbol
_atom_site_aniso_beta_11
_atom_site_aniso_beta_22
_atom_site_aniso_beta_33
_atom_site_aniso_beta_12
_atom_site_aniso_beta_13
_atom_site_aniso_beta_23
Ce1 Ce3+ 0.01 0.01 0.0021 0 0 0
Bi1 Bi3+ 0.025 0.025 0.001 0 0 0
S1 S2- 0.01 0.01 0.0012 0 0 0
S2 S2- 0.02 0.02 0.004 0 0 0
O1 O2- 0.08 0.08 0.001 0 0 0
#End of TTdata_80-ICSD
loop_
_atom_site_label
_atom_site_type_symbol
_atom_site_fract_x
_atom_site_fract_y
_atom_site_fract_z
_atom_site_B_iso_or_equiv
Bi1       Bi        0.25           0.25           0.1263         1.000          
Bi2       Bi        0.25           0.25           0.8737         1.000          
Bi3       Bi        0.25           0.75           0.1263         1.000          
Bi4       Bi        0.25           0.75           0.8737         1.000          
Bi5       Bi        0.75           0.25           0.1263         1.000          
Bi6       Bi        0.75           0.25           0.8737         1.000          
Bi7       Bi        0.75           0.75           0.1263         1.000          
Bi8       Bi        0.75           0.75           0.8737         1.000          
Ce1       Ce        0.25           0.25           0.4064         1.000          
Ce2       Ce        0.25           0.25           0.5936         1.000          
Ce3       Ce        0.25           0.75           0.4064         1.000          
Ce4       Ce        0.25           0.75           0.5936         1.000          
Ce5       Ce        0.75           0.25           0.4064         1.000          
Ce6       Ce        0.75           0.25           0.5936         1.000          
Ce7       Ce        0.75           0.75           0.4064         1.000          
Ce8       Ce        0.75           0.75           0.5936         1.000          
O1        O         0.25           0.25           0.5            1.000          
O2        O         0.25           0.75           0.5            1.000          
O3        O         0.75           0.25           0.5            1.000          
O4        O         0.75           0.75           0.5            1.000          
S1        S         0.25           0.25           0.121          1.000          
S2        S         0.25           0.25           0.313          1.000          
S3        S         0.25           0.25           0.687          1.000          
S4        S         0.25           0.25           0.879          1.000          
S5        S         0.25           0.75           0.121          1.000          
S6        S         0.25           0.75           0.313          1.000          
S7        S         0.25           0.75           0.687          1.000          
S8        S         0.25           0.75           0.879          1.000          
S9        S         0.75           0.25           0.121          1.000          
S10       S         0.75           0.25           0.313          1.000          
S11       S         0.75           0.25           0.687          1.000          
S12       S         0.75           0.25           0.879          1.000          
S13       S         0.75           0.75           0.121          1.000          
S14       S         0.75           0.75           0.313          1.000          
S15       S         0.75           0.75           0.687          1.000          
S16       S         0.75           0.75           0.879          1.000          


#END