loop_
_symmetry_equiv_pos_site_id
_symmetry_equiv_pos_as_xyz
1 'x+1/2, y, -z+1/2'
2 'x, -y+1/2, z+1/2'
3 '-x+1/2, y+1/2, z'
4 '-x, -y, -z'
5 '-x+1/2, -y, z+1/2'
6 '-x, y+1/2, -z+1/2'
7 'x+1/2, -y+1/2, -z'
8 'x, y, z'
loop_
_atom_type_symbol
_atom_type_oxidation_number
As5+ 5
Mg2+ 2
O2- -2
H1+ 1
loop_
_publ_author_name
'Protas, J.'
'Gindt, R.'
_cell_length_a 7.472(1)
_cell_length_b 10.891(1)
_cell_length_c 16.5850(50)
_cell_angle_alpha 90.
_cell_angle_beta 90.
_cell_angle_gamma 90.
_cell_volume 1349.65
_cell_formula_units_Z 8
_symmetry_space_group_name_H-M 'P b c a'
_symmetry_Int_Tables_number 61
_refine_ls_R_factor_all 0.062
loop_
_atom_site_aniso_label
_atom_site_aniso_type_symbol
_atom_site_aniso_beta_11
_atom_site_aniso_beta_22
_atom_site_aniso_beta_33
_atom_site_aniso_beta_12
_atom_site_aniso_beta_13
_atom_site_aniso_beta_23
As1 As5+ 0.00311 0.00197 0.00079 -.00022 0.00034 0.00005
Mg1 Mg2+ 0.0041 0.00235 0.00096 -.00059 0.00038 -.00002
O1 O2- 0.00823 0.00435 0.00059 -.00166 0.00038 0.00012
O2 O2- 0.00602 0.0048 0.00158 -.00135 -.00028 0.00032
O3 O2- 0.00567 0.00175 0.00188 0.00104 -.00004 0.00014
O4 O2- 0.00645 0.00313 0.00107 -.00026 -.00016 -.00006
O5 O2- 0.00547 0.00243 0.00158 0.00012 0.00033 -.00013
O6 O2- 0.00897 0.00436 0.00163 -.00008 -.00101 -.00002
O7 O2- 0.00719 0.004 0.00182 -.00028 0.00026 -.00015
O8 O2- 0.00926 0.00293 0.0016 0.00272 -.0008 0.00005
#End of TTdata_78-ICSD
loop_
_atom_site_label
_atom_site_type_symbol
_atom_site_fract_x
_atom_site_fract_y
_atom_site_fract_z
_atom_site_B_iso_or_equiv
As1       As        -0.0009        0.2067         0.099          1.000          
As2       As        0.0009         0.7067         0.401          1.000          
As3       As        0.0009         0.7933         0.901          1.000          
As4       As        0.4991         0.2067         0.401          1.000          
As5       As        0.4991         0.2933         0.901          1.000          
As6       As        0.5009         0.7067         0.099          1.000          
As7       As        0.5009         0.7933         0.599          1.000          
As8       As        0.9991         0.2067         0.099          1.000          
As9       As        0.9991         0.2933         0.599          1.000          
Mg1       Mg        0.2059         0.5285         0.8468         1.000          
Mg2       Mg        0.2059         0.9715         0.3468         1.000          
Mg3       Mg        0.2941         0.0285         0.8468         1.000          
Mg4       Mg        0.2941         0.4715         0.3468         1.000          
Mg5       Mg        0.7059         0.5285         0.6532         1.000          
Mg6       Mg        0.7059         0.9715         0.1532         1.000          
Mg7       Mg        0.7941         0.0285         0.6532         1.000          
Mg8       Mg        0.7941         0.4715         0.1532         1.000          
O1        O         0.0017         0.1515         0.6371         1.000          
O2        O         0.0017         0.3485         0.1371         1.000          
O3        O         0.015          0.1058         0.3131         1.000          
O4        O         0.015          0.3942         0.8131         1.000          
O5        O         0.0879         0.6017         0.3389         1.000          
O6        O         0.0879         0.697          0.4935         1.000          
O7        O         0.0879         0.803          0.9935         1.000          
O8        O         0.0879         0.8983         0.8389         1.000          
O9        O         0.0954         0.1576         0.8697         1.000          
O10       O         0.0954         0.3424         0.3697         1.000          
O11       O         0.175          0.0193         0.4669         1.000          
O12       O         0.175          0.4807         0.9669         1.000          
O13       O         0.2219         0.1623         0.0877         1.000          
O14       O         0.2219         0.3377         0.5877         1.000          
O15       O         0.2224         0.5724         0.7256         1.000          
O16       O         0.2224         0.9276         0.2256         1.000          
O17       O         0.2776         0.0724         0.7256         1.000          
O18       O         0.2776         0.4276         0.2256         1.000          
O19       O         0.2781         0.6623         0.0877         1.000          
O20       O         0.2781         0.8377         0.5877         1.000          
O21       O         0.325          0.5193         0.4669         1.000          
O22       O         0.325          0.9807         0.9669         1.000          
O23       O         0.4046         0.6576         0.8697         1.000          
O24       O         0.4046         0.8424         0.3697         1.000          
O25       O         0.4121         0.1017         0.3389         1.000          
O26       O         0.4121         0.197          0.4935         1.000          
O27       O         0.4121         0.303          -0.0065        1.000          
O28       O         0.4121         0.303          0.9935         1.000          
O29       O         0.4121         0.3983         0.8389         1.000          
O30       O         0.485          0.6058         0.3131         1.000          
O31       O         0.485          0.8942         0.8131         1.000          
O32       O         0.4983         0.6515         0.6371         1.000          
O33       O         0.4983         0.8485         0.1371         1.000          
O34       O         0.5017         0.1515         0.8629         1.000          
O35       O         0.5017         0.3485         0.3629         1.000          
O36       O         0.515          0.1058         0.1869         1.000          
O37       O         0.515          0.3942         0.6869         1.000          
O38       O         0.5879         0.6017         0.1611         1.000          
O39       O         0.5879         0.697          0.0065         1.000          
O40       O         0.5879         0.803          0.5065         1.000          
O41       O         0.5879         0.8983         0.6611         1.000          
O42       O         0.5954         0.1576         0.6303         1.000          
O43       O         0.5954         0.3424         0.1303         1.000          
O44       O         0.675          0.0193         0.0331         1.000          
O45       O         0.675          0.4807         0.5331         1.000          
O46       O         0.7219         0.1623         0.4123         1.000          
O47       O         0.7219         0.3377         0.9123         1.000          
O48       O         0.7224         0.5724         0.7744         1.000          
O49       O         0.7224         0.9276         0.2744         1.000          
O50       O         0.7776         0.0724         0.7744         1.000          
O51       O         0.7776         0.4276         0.2744         1.000          
O52       O         0.7781         0.6623         0.4123         1.000          
O53       O         0.7781         0.8377         0.9123         1.000          
O54       O         0.825          0.5193         0.0331         1.000          
O55       O         0.825          0.9807         0.5331         1.000          
O56       O         0.9046         0.6576         0.6303         1.000          
O57       O         0.9046         0.8424         0.1303         1.000          
O58       O         0.9121         0.1017         0.1611         1.000          
O59       O         0.9121         0.197          0.0065         1.000          
O60       O         0.9121         0.303          0.5065         1.000          
O61       O         0.9121         0.3983         0.6611         1.000          
O62       O         0.985          0.6058         0.1869         1.000          
O63       O         0.985          0.8942         0.6869         1.000          
O64       O         0.9983         0.6515         0.8629         1.000          
O65       O         0.9983         0.8485         0.3629         1.000          


#END