loop_
_symmetry_equiv_pos_site_id
_symmetry_equiv_pos_as_xyz
1 'y, x, -z'
2 '-y, -x, -z'
3 '-y, x, -z'
4 'y, -x, -z'
5 '-x, y, -z'
6 'x, -y, -z'
7 'x, y, -z'
8 '-x, -y, -z'
9 '-y, -x, z'
10 'y, x, z'
11 'y, -x, z'
12 '-y, x, z'
13 'x, -y, z'
14 '-x, y, z'
15 '-x, -y, z'
16 'x, y, z'
17 'y+1/2, x+1/2, -z+1/2'
18 '-y+1/2, -x+1/2, -z+1/2'
19 '-y+1/2, x+1/2, -z+1/2'
20 'y+1/2, -x+1/2, -z+1/2'
21 '-x+1/2, y+1/2, -z+1/2'
22 'x+1/2, -y+1/2, -z+1/2'
23 'x+1/2, y+1/2, -z+1/2'
24 '-x+1/2, -y+1/2, -z+1/2'
25 '-y+1/2, -x+1/2, z+1/2'
26 'y+1/2, x+1/2, z+1/2'
27 'y+1/2, -x+1/2, z+1/2'
28 '-y+1/2, x+1/2, z+1/2'
29 'x+1/2, -y+1/2, z+1/2'
30 '-x+1/2, y+1/2, z+1/2'
31 '-x+1/2, -y+1/2, z+1/2'
32 'x+1/2, y+1/2, z+1/2'
loop_
_atom_type_symbol
_atom_type_oxidation_number
Cs1+ 1
Os4+ 4
Br1- -1
Cl1- -1
F1- -1
loop_
_publ_author_name
'Keller, H.J.'
'Homborg, H.'
_cell_length_a 7.175(4)
_cell_length_b 7.175(4)
_cell_length_c 8.606(5)
_cell_angle_alpha 90.
_cell_angle_beta 90.
_cell_angle_gamma 90.
_cell_volume 443.04
_cell_formula_units_Z 2
_symmetry_space_group_name_H-M 'I 4/m m m'
_symmetry_Int_Tables_number 139
_refine_ls_R_factor_all 0.039
loop_
_atom_site_aniso_label
_atom_site_aniso_type_symbol
_atom_site_aniso_beta_11
_atom_site_aniso_beta_22
_atom_site_aniso_beta_33
_atom_site_aniso_beta_12
_atom_site_aniso_beta_13
_atom_site_aniso_beta_23
Cs1 Cs1+ 0.01626(19) 0.01626(19) 0.01407(26) 0 0 0
Os1 Os4+ 0.00816(12) 0.00816(12) 0.00684(14) 0 0 0
Br1 Br1- 0.01919(66) 0.01919(66) 0.01594(80) 0 0 0
Cl1 Cl1- 0.00772(75) 0.00772(75) 0.00184(70) 0 0 0
F1 F1- 0.0284(18) 0.0284(18) 0.0108(13) -0.0179(23) 0 0
#End of TTdata_116-ICSD
loop_
_atom_site_label
_atom_site_type_symbol
_atom_site_fract_x
_atom_site_fract_y
_atom_site_fract_z
_atom_site_B_iso_or_equiv
Br1       Br        0              0              0.2898         1.000          
Br2       Br        0              0              0.7102         1.000          
Br3       Br        0.5            0.5            0.2102         1.000          
Br4       Br        0.5            0.5            0.7898         1.000          
Cl1       Cl        0              0              0.2822         1.000          
Cl2       Cl        0              0              0.7178         1.000          
Cl3       Cl        0.5            0.5            0.2178         1.000          
Cl4       Cl        0.5            0.5            0.7822         1.000          
Cs1       Cs        0              0.5            0.25           1.000          
Cs2       Cs        0              0.5            0.75           1.000          
Cs3       Cs        0.5            0              0.25           1.000          
Cs4       Cs        0.5            0              0.75           1.000          
Cs5       Cs        0.5            1              0.25           1.000          
Cs6       Cs        0.5            1              0.75           1.000          
F1        F         0.1908         0.1908         0              1.000          
F2        F         0.1908         0.8092         0              1.000          
F3        F         0.3092         0.3092         0.5            1.000          
F4        F         0.3092         0.6908         0.5            1.000          
F5        F         0.6908         0.3092         0.5            1.000          
F6        F         0.6908         0.6908         0.5            1.000          
F7        F         0.8092         0.1908         0              1.000          
F8        F         0.8092         0.8092         0              1.000          
Os1       Os        0              0              0              1.000          
Os2       Os        0.5            0.5            0.5            1.000          


#END