loop_
_symmetry_equiv_pos_site_id
_symmetry_equiv_pos_as_xyz
1 'x+1/2, y, -z+1/2'
2 'x, -y+1/2, z'
3 '-x+1/2, y+1/2, z+1/2'
4 '-x, -y, -z'
5 '-x+1/2, -y, z+1/2'
6 '-x, y+1/2, -z'
7 'x+1/2, -y+1/2, -z+1/2'
8 'x, y, z'
loop_
_atom_type_symbol
_atom_type_oxidation_number
Te4+ 4
I1- -1
loop_
_publ_author_name
'Krebs, B.'
'Paulat, V.'
_cell_length_a 13.635(5)
_cell_length_b 16.798(5)
_cell_length_c 14.624(5)
_cell_angle_alpha 90.
_cell_angle_beta 90.
_cell_angle_gamma 90.
_cell_volume 3349.49
_cell_formula_units_Z 16
_symmetry_space_group_name_H-M 'P n m a'
_symmetry_Int_Tables_number 62
_refine_ls_R_factor_all 0.051
loop_
_atom_site_aniso_label
_atom_site_aniso_type_symbol
_atom_site_aniso_B_11
_atom_site_aniso_B_22
_atom_site_aniso_B_33
_atom_site_aniso_B_12
_atom_site_aniso_B_13
_atom_site_aniso_B_23
Te1 Te4+ 2.11(4) 1.34(3) 1.49(4) 0 0.01(3) 0
Te2 Te4+ 2.19(3) 1.22(2) 1.54(2) 0.06(2) -.09(2) -.08(2)
Te3 Te4+ 2.28(4) 1.54(4) 1.29(3) 0 0.07(3) 0
I1 I1- 3.56(6) 3.14(5) 2.28(4) 0 1.17(4) 0
I2 I1- 3.97(4) 2.35(3) 2.87(4) 1.03(3) -.58(3) 0.36(3)
I3 I1- 3.64(4) 2.14(3) 2.67(4) 0.83(3) -.32(3) 0.51(3)
I4 I1- 3.39(4) 2.58(3) 3.37(4) -1.04(3) -.08(3) -1.02(3)
I5 I1- 3.13(4) 2.71(4) 3.23(4) -.86(3) -.41(3) -.66(3)
I6 I1- 2.98(5) 2.91(5) 2.29(5) 0 0.73(4) 0
I7 I1- 2.58(3) 2.43(3) 2.09(3) -.68(2) 0.64(2) -.54(2)
I8 I1- 2.39(3) 2.41(3) 2.04(3) 0.51(2) 0.53(2) 0.31(2)
I9 I1- 1.93(4) 1.73(4) 1.85(4) 0 0.09(3) 0
I10 I1- 1.87(4) 1.93(4) 1.87(4) 0 -.03(3) 0
#End of TTdata_79-ICSD
loop_
_atom_site_label
_atom_site_type_symbol
_atom_site_fract_x
_atom_site_fract_y
_atom_site_fract_z
_atom_site_B_iso_or_equiv
I1        I         0.00012        0.25           0.7354         1.000          
I2        I         0.00161        0.25           0.2424         1.000          
I3        I         0.00596        0.11921        0.48969        1.000          
I4        I         0.00596        0.38079        0.48969        1.000          
I5        I         0.01636        -0.00538       0.24875        1.000          
I6        I         0.01636        0.50538        0.24875        1.000          
I7        I         0.01636        0.99462        0.24875        1.000          
I8        I         0.01753        0.12706        -0.01344       1.000          
I9        I         0.01753        0.12706        0.98656        1.000          
I10       I         0.01753        0.37294        0.98656        1.000          
I11       I         0.23174        0.75           0.91482        1.000          
I12       I         0.23204        0.75           0.41956        1.000          
I13       I         0.23794        0.61813        0.66345        1.000          
I14       I         0.23794        0.88187        0.66345        1.000          
I15       I         0.239          0.5009         0.91054        1.000          
I16       I         0.239          0.9991         0.91054        1.000          
I17       I         0.24603        0.62881        0.16905        1.000          
I18       I         0.24603        0.87119        0.16905        1.000          
I19       I         0.25397        0.12881        0.66905        1.000          
I20       I         0.25397        0.37119        0.66905        1.000          
I21       I         0.261          0.0009         0.41054        1.000          
I22       I         0.261          0.4991         0.41054        1.000          
I23       I         0.26206        0.11813        0.16345        1.000          
I24       I         0.26206        0.38187        0.16345        1.000          
I25       I         0.26796        0.25           -0.08044       1.000          
I26       I         0.26796        0.25           0.91956        1.000          
I27       I         0.26826        0.25           0.41482        1.000          
I28       I         0.48247        0.62706        0.48656        1.000          
I29       I         0.48247        0.87294        0.48656        1.000          
I30       I         0.48364        0.00538        0.74875        1.000          
I31       I         0.48364        0.49462        0.74875        1.000          
I32       I         0.49404        0.61921        0.98969        1.000          
I33       I         0.49404        0.88079        0.98969        1.000          
I34       I         0.49839        0.75           0.7424         1.000          
I35       I         0.49988        0.75           0.2354         1.000          
I36       I         0.50012        0.25           0.7646         1.000          
I37       I         0.50161        0.25           0.2576         1.000          
I38       I         0.50596        0.11921        0.01031        1.000          
I39       I         0.50596        0.38079        0.01031        1.000          
I40       I         0.51636        0.50538        0.25125        1.000          
I41       I         0.51636        0.99462        0.25125        1.000          
I42       I         0.51753        0.12706        0.51344        1.000          
I43       I         0.51753        0.37294        0.51344        1.000          
I44       I         0.73174        0.75           0.58518        1.000          
I45       I         0.73204        0.75           0.08044        1.000          
I46       I         0.73794        0.61813        0.83655        1.000          
I47       I         0.73794        0.88187        0.83655        1.000          
I48       I         0.739          0.5009         0.58946        1.000          
I49       I         0.739          0.9991         0.58946        1.000          
I50       I         0.74603        0.62881        0.33095        1.000          
I51       I         0.74603        0.87119        0.33095        1.000          
I52       I         0.75397        0.12881        0.83095        1.000          
I53       I         0.75397        0.37119        0.83095        1.000          
I54       I         0.761          0.0009         0.08946        1.000          
I55       I         0.761          0.4991         0.08946        1.000          
I56       I         0.76206        0.11813        0.33655        1.000          
I57       I         0.76206        0.38187        0.33655        1.000          
I58       I         0.76796        0.25           0.58044        1.000          
I59       I         0.76826        0.25           0.08518        1.000          
I60       I         0.98247        0.62706        0.01344        1.000          
I61       I         0.98247        0.87294        0.01344        1.000          
I62       I         0.98364        0.00538        0.75125        1.000          
I63       I         0.98364        0.49462        0.75125        1.000          
I64       I         0.99404        0.61921        0.51031        1.000          
I65       I         0.99404        0.88079        0.51031        1.000          
I66       I         0.99839        0.75           0.7576         1.000          
I67       I         0.99988        0.75           0.2646         1.000          
Te1       Te        0.13113        0.25           0.05877        1.000          
Te2       Te        0.13471        0.10875        0.32949        1.000          
Te3       Te        0.13471        0.39125        0.32949        1.000          
Te4       Te        0.14092        0.25           0.59862        1.000          
Te5       Te        0.35908        0.75           0.09862        1.000          
Te6       Te        0.36529        0.60875        0.82949        1.000          
Te7       Te        0.36529        0.89125        0.82949        1.000          
Te8       Te        0.36887        0.75           0.55877        1.000          
Te9       Te        0.63113        0.25           0.44123        1.000          
Te10      Te        0.63471        0.10875        0.17051        1.000          
Te11      Te        0.63471        0.39125        0.17051        1.000          
Te12      Te        0.64092        0.25           0.90138        1.000          
Te13      Te        0.85908        0.75           0.40138        1.000          
Te14      Te        0.86529        0.60875        0.67051        1.000          
Te15      Te        0.86529        0.89125        0.67051        1.000          
Te16      Te        0.86887        0.75           0.94123        1.000          


#END