loop_
_symmetry_equiv_pos_site_id
_symmetry_equiv_pos_as_xyz
1 '-x, -x+y, -z'
2 'x-y, -y, -z'
3 'y, x, -z'
4 '-x+y, -x, -z'
5 '-y, x-y, -z'
6 'x, y, -z'
7 'x, x-y, -z'
8 '-x+y, y, -z'
9 '-y, -x, -z'
10 'x-y, x, -z'
11 'y, -x+y, -z'
12 '-x, -y, -z'
13 'x, x-y, z'
14 '-x+y, y, z'
15 '-y, -x, z'
16 'x-y, x, z'
17 'y, -x+y, z'
18 '-x, -y, z'
19 '-x, -x+y, z'
20 'x-y, -y, z'
21 'y, x, z'
22 '-x+y, -x, z'
23 '-y, x-y, z'
24 'x, y, z'
loop_
_atom_type_symbol
_atom_type_oxidation_number
Fe0+ 0
Mn0+ 0
Ge0+ 0
Fe0+ 0
Mn0+ 0
loop_
_publ_author_name
'Malaman, B.'
'Roques, B.'
'Courtois, A.'
'Protas, J.'
_cell_length_a 5.120(5)
_cell_length_b 5.120(5)
_cell_length_c 8.083(5)
_cell_angle_alpha 90.
_cell_angle_beta 90.
_cell_angle_gamma 120.
_cell_volume 183.5
_cell_formula_units_Z 1
_symmetry_space_group_name_H-M 'P 6/m m m'
_symmetry_Int_Tables_number 191
_refine_ls_R_factor_all 0.063
loop_
_atom_site_label
_atom_site_type_symbol
_atom_site_fract_x
_atom_site_fract_y
_atom_site_fract_z
_atom_site_B_iso_or_equiv
Fe1       Fe        0              0              0.5            1.000          
Fe2       Fe        0.5            0              0.2509         1.000          
Fe3       Fe        0.5            0              0.7491         1.000          
Ge1       Ge        0              0              0.1623         1.000          
Ge2       Ge        0              0              0.8377         1.000          
Ge3       Ge        0.3333         0.3334         0              1.000          
Ge4       Ge        0.3333         0.3334         0.5            1.000          
Ge5       Ge        0.3333         0.6666         0              1.000          
Ge6       Ge        0.3333         0.6666         0.5            1.000          
Ge7       Ge        0.6667         0.3334         0              1.000          
Ge8       Ge        0.6667         0.3334         0.5            1.000          
Ge9       Ge        0.6667         0.6666         0              1.000          
Ge10      Ge        0.6667         0.6666         0.5            1.000          
Mn1       Mn        0              0              0.5            1.000          
Mn2       Mn        0.5            0              0.2509         1.000          
Mn3       Mn        0.5            0              0.7491         1.000          


#END