loop_
_symmetry_equiv_pos_site_id
_symmetry_equiv_pos_as_xyz
1 '-z, x, y'
2 'z, x, -y'
3 'z, -x, y'
4 '-z, -x, -y'
5 'y, -z, x'
6 '-y, z, x'
7 'y, z, -x'
8 '-y, -z, -x'
9 'x, y, -z'
10 'x, -y, z'
11 '-x, y, z'
12 '-x, -y, -z'
13 'z, -x, -y'
14 '-z, -x, y'
15 '-z, x, -y'
16 'z, x, y'
17 '-y, z, -x'
18 'y, -z, -x'
19 '-y, -z, x'
20 'y, z, x'
21 '-x, -y, z'
22 '-x, y, -z'
23 'x, -y, -z'
24 'x, y, z'
loop_
_atom_type_symbol
_atom_type_oxidation_number
Cl1- -1
Cu2+ 2
N3- -3
H1+ 1
loop_
_publ_author_name
'Clayton, W.'
'Meyers, E.'
_cell_length_a 3.901(2)
_cell_length_b 3.901(2)
_cell_length_c 3.901(2)
_cell_angle_alpha 90.
_cell_angle_beta 90.
_cell_angle_gamma 90.
_cell_volume 59.36
_cell_formula_units_Z 1
_symmetry_space_group_name_H-M 'P m -3'
_symmetry_Int_Tables_number 200
_refine_ls_R_factor_all 0.037
loop_
_atom_site_label
_atom_site_type_symbol
_atom_site_fract_x
_atom_site_fract_y
_atom_site_fract_z
_atom_site_B_iso_or_equiv
Cl1       Cl        0              0              0              1.000          
Cu1       Cu        0              0.5            0.5            1.000          
H1        H         0.366          0.366          0.366          1.000          
H2        H         0.366          0.366          0.634          1.000          
H3        H         0.366          0.634          0.366          1.000          
H4        H         0.366          0.634          0.634          1.000          
H5        H         0.634          0.366          0.366          1.000          
H6        H         0.634          0.366          0.634          1.000          
H7        H         0.634          0.634          0.366          1.000          
H8        H         0.634          0.634          0.634          1.000          
N1        N         0.5            0.5            0.5            1.000          


#END