loop_
_symmetry_equiv_pos_site_id
_symmetry_equiv_pos_as_xyz
1 '-x+1/2, y+1/2, -z+1/2'
2 '-x, -y, -z'
3 'x+1/2, -y+1/2, z+1/2'
4 'x, y, z'
loop_
_atom_type_symbol
_atom_type_oxidation_number
K1+ 1
P5+ 5
O2- -2
loop_
_publ_author_name
'Bagieu-Beucher, M.'
'Tordjman, I.'
'Durif, A.'
'Guitel, J.C.'
_cell_length_a 11.074(8)
_cell_length_b 11.965(9)
_cell_length_c 7.350(6)
_cell_angle_alpha 90.
_cell_angle_beta 102.18(3)
_cell_angle_gamma 90.
_cell_volume 951.96
_cell_formula_units_Z 4
_symmetry_space_group_name_H-M 'P 1 21/n 1'
_symmetry_Int_Tables_number 14
_refine_ls_R_factor_all 0.04
loop_
_atom_site_aniso_label
_atom_site_aniso_type_symbol
_atom_site_aniso_beta_11
_atom_site_aniso_beta_22
_atom_site_aniso_beta_33
_atom_site_aniso_beta_12
_atom_site_aniso_beta_13
_atom_site_aniso_beta_23
K1 K1+ 0.00309(22) 0.00381(21) 0.00959(53) 0.00025(19) 0.00258(27) -.00008(28)
K2 K1+ 0.00418(25) 0.00377(22) 0.01089(63) 0.00042(20) 0.00192(32) 0.00136(30)
K3 K1+ 0.00505(25) 0.00343(23) 0.01630(69) -.00027(20) 0.00581(32) -.00106(31)
P1 P5+ 0.00254(27) 0.00263(24) 0.00990(78) 0.00039(22) 0.00296(36) 0.00049(34)
P2 P5+ 0.00237(26) 0.00263(26) 0.00711(66) -.00002(21) 0.00206(33) -.00102(32)
P3 P5+ 0.00264(25) 0.00258(23) 0.00657(62) 0.00018(22) 0.00218(32) 0.00073(34)
O1 O2- 0.00337(71) 0.00275(65) 0.0104(18) -.00038(52) 0.00222(88) -.00089(81)
O2 O2- 0.00249(64) 0.00282(63) 0.0088(16) 0.00069(55) 0.00253(79) 0.00224(84)
O3 O2- 0.00320(68) 0.00337(62) 0.0094(17) -.00075(56) 0.00399(91) -.00079(86)
O4 O2- 0.00429(75) 0.00364(69) 0.0055(17) 0.00103(58) 0.00208(89) -.00074(86)
O5 O2- 0.00163(67) 0.00554(71) 0.0174(20) 0.00001(56) 0.00345(90) 0.0013(10)
O6 O2- 0.00415(74) 0.00492(71) 0.0113(18) -.00053(62) 0.00368(93) -.00101(95)
O7 O2- 0.00237(67) 0.00475(69) 0.0084(17) 0.00051(58) 0.00168(84) 0.00040(88)
O8 O2- 0.00431(74) 0.00431(70) 0.0103(18) 0.00125(63) 0.00288(88) 0.00246(91)
O9 O2- 0.00268(68) 0.00520(69) 0.0076(17) -.00051(56) 0.00155(87) -.00029(89)
#End of TTdata_76-ICSD
loop_
_atom_site_label
_atom_site_type_symbol
_atom_site_fract_x
_atom_site_fract_y
_atom_site_fract_z
_atom_site_B_iso_or_equiv
K1        K         0.0806         0.6418         0.1586         1.000          
K2        K         0.0998         0.2569         0.4028         1.000          
K3        K         0.1217         0.9183         0.3531         1.000          
K4        K         0.3783         0.4183         0.1469         1.000          
K5        K         0.4002         0.7569         0.0972         1.000          
K6        K         0.4194         0.1418         0.3414         1.000          
K7        K         0.5806         0.8582         0.6586         1.000          
K8        K         0.5998         0.2431         0.9028         1.000          
K9        K         0.6217         0.5817         0.8531         1.000          
K10       K         0.8783         0.0817         0.6469         1.000          
K11       K         0.9002         0.7431         0.5972         1.000          
K12       K         0.9194         0.3582         0.8414         1.000          
O1        O         0.028          0.5482         0.7499         1.000          
O2        O         0.0575         0.9225         0.6994         1.000          
O3        O         0.0812         0.2103         0.7612         1.000          
O4        O         0.1427         0.046          0.9794         1.000          
O5        O         0.1643         0.84           0.0131         1.000          
O6        O         0.1924         0.6523         0.6337         1.000          
O7        O         0.2022         0.2388         0.096          1.000          
O8        O         0.2109         0.4449         0.6762         1.000          
O9        O         0.2415         0.5717         0.9582         1.000          
O10       O         0.2585         0.0717         0.5418         1.000          
O11       O         0.2891         0.9449         0.8238         1.000          
O12       O         0.2978         0.7388         0.404          1.000          
O13       O         0.3076         0.1523         0.8663         1.000          
O14       O         0.3357         0.34           0.4869         1.000          
O15       O         0.3573         0.546          0.5206         1.000          
O16       O         0.4188         0.7103         0.7388         1.000          
O17       O         0.4425         0.4225         0.8006         1.000          
O18       O         0.472          0.0482         0.7501         1.000          
O19       O         0.528          0.9518         0.2499         1.000          
O20       O         0.5575         0.5775         0.1994         1.000          
O21       O         0.5812         0.2897         0.2612         1.000          
O22       O         0.6427         0.454          0.4794         1.000          
O23       O         0.6643         0.66           0.5131         1.000          
O24       O         0.6924         0.8477         0.1337         1.000          
O25       O         0.7022         0.2612         0.596          1.000          
O26       O         0.7109         0.0551         0.1762         1.000          
O27       O         0.7415         0.9283         0.4582         1.000          
O28       O         0.7585         0.4283         0.0418         1.000          
O29       O         0.7891         0.5551         0.3238         1.000          
O30       O         0.7978         0.7612         0.904          1.000          
O31       O         0.8076         0.3477         0.3663         1.000          
O32       O         0.8357         0.16           0.9869         1.000          
O33       O         0.8573         0.954          0.0206         1.000          
O34       O         0.9188         0.7897         0.2388         1.000          
O35       O         0.9425         0.0775         0.3006         1.000          
O36       O         0.972          0.4518         0.2501         1.000          
P1        P         0.1537         0.9293         0.873          1.000          
P2        P         0.1641         0.5547         0.7715         1.000          
P3        P         0.1754         0.1719         0.9243         1.000          
P4        P         0.3246         0.6719         0.5757         1.000          
P5        P         0.3359         0.0547         0.7285         1.000          
P6        P         0.3463         0.4293         0.627          1.000          
P7        P         0.6537         0.5707         0.373          1.000          
P8        P         0.6641         0.9453         0.2715         1.000          
P9        P         0.6754         0.3281         0.4243         1.000          
P10       P         0.8246         0.8281         0.0757         1.000          
P11       P         0.8359         0.4453         0.2285         1.000          
P12       P         0.8463         0.0707         0.127          1.000          


#END