loop_
_symmetry_equiv_pos_site_id
_symmetry_equiv_pos_as_xyz
1 'x+1/2, y, -z+1/2'
2 'x, -y+1/2, z'
3 '-x+1/2, y+1/2, z+1/2'
4 '-x, -y, -z'
5 '-x+1/2, -y, z+1/2'
6 '-x, y+1/2, -z'
7 'x+1/2, -y+1/2, -z+1/2'
8 'x, y, z'
loop_
_atom_type_symbol
_atom_type_oxidation_number
Bi0+ 0
Y0+ 0
loop_
_publ_author_name
'Wang, Yu'
'Gabe, E.J.'
'Calvert, L.D.'
'Taylor, J.B.'
_cell_length_a 8.179(1)
_cell_length_b 9.401(1)
_cell_length_c 11.957(1)
_cell_angle_alpha 90.
_cell_angle_beta 90.
_cell_angle_gamma 90.
_cell_volume 919.38
_cell_formula_units_Z 4
_symmetry_space_group_name_H-M 'P n m a'
_symmetry_Int_Tables_number 62
_refine_ls_R_factor_all 0.031
loop_
_atom_site_aniso_label
_atom_site_aniso_type_symbol
_atom_site_aniso_beta_11
_atom_site_aniso_beta_22
_atom_site_aniso_beta_33
_atom_site_aniso_beta_12
_atom_site_aniso_beta_13
_atom_site_aniso_beta_23
Bi1 Bi0+ 0.00096 0.00074 0.0007 0.00006 -.00013 -.00002
Bi2 Bi0+ 0.00085 0.00081 0.00071 0 0.00001 0
Y1 Y0+ 0.00063 0.00099 0.00083 0 -.00005 0
Y2 Y0+ 0.00078 0.00095 0.00084 0 0.00014 0
Y3 Y0+ 0.0009 0.00081 0.00075 -.00008 0.00007 -.00007
Y4 Y0+ 0.00113 0.00115 0.00065 0 0.00008 0
#End of TTdata_77-ICSD
loop_
_atom_site_label
_atom_site_type_symbol
_atom_site_fract_x
_atom_site_fract_y
_atom_site_fract_z
_atom_site_B_iso_or_equiv
Bi1       Bi        0.0664         -0.003         0.174          1.000          
Bi2       Bi        0.0664         0.503          0.174          1.000          
Bi3       Bi        0.0664         0.997          0.174          1.000          
Bi4       Bi        0.0889         0.25           0.4577         1.000          
Bi5       Bi        0.4111         0.75           0.9577         1.000          
Bi6       Bi        0.4336         0.003          0.674          1.000          
Bi7       Bi        0.4336         0.497          0.674          1.000          
Bi8       Bi        0.5664         0.503          0.326          1.000          
Bi9       Bi        0.5664         0.997          0.326          1.000          
Bi10      Bi        0.5889         0.25           0.0423         1.000          
Bi11      Bi        0.9111         0.75           0.5423         1.000          
Bi12      Bi        0.9336         0.003          0.826          1.000          
Bi13      Bi        0.9336         0.497          0.826          1.000          
Y1        Y         0.0274         0.75           0.9902         1.000          
Y2        Y         0.1458         0.25           0.7126         1.000          
Y3        Y         0.1854         0.75           0.7194         1.000          
Y4        Y         0.1934         0.5607         0.4404         1.000          
Y5        Y         0.1934         0.9393         0.4404         1.000          
Y6        Y         0.3066         0.0607         0.9404         1.000          
Y7        Y         0.3066         0.4393         0.9404         1.000          
Y8        Y         0.3146         0.25           0.2194         1.000          
Y9        Y         0.3542         0.75           0.2126         1.000          
Y10       Y         0.4726         0.25           0.4902         1.000          
Y11       Y         0.5274         0.75           0.5098         1.000          
Y12       Y         0.6458         0.25           0.7874         1.000          
Y13       Y         0.6854         0.75           0.7806         1.000          
Y14       Y         0.6934         0.5607         0.0596         1.000          
Y15       Y         0.6934         0.9393         0.0596         1.000          
Y16       Y         0.8066         0.0607         0.5596         1.000          
Y17       Y         0.8066         0.4393         0.5596         1.000          
Y18       Y         0.8146         0.25           0.2806         1.000          
Y19       Y         0.8542         0.75           0.2874         1.000          
Y20       Y         0.9726         0.25           0.0098         1.000          


#END