
#(C) 2019 by FIZ Karlsruhe - Leibniz Institute for Information Infrastructure.  All rights reserved.
data_417225-ICSD
_database_code_ICSD 417225
_audit_creation_date 2008-02-01
_chemical_name_systematic 'Calcium silver (1/2)'
_chemical_formula_structural 'Ca Ag2'
_chemical_formula_sum 'Ag2 Ca1'
_chemical_name_structure_type CeCu2
_exptl_crystal_density_diffrn 6.11
_cell_measurement_temperature 292.
_publ_section_title

;
The Ca Ag2 - Ca Zn2 - Ca Al2 pseudo ternary system: crystal structures and
structure stability
;
loop_
_citation_id
_citation_journal_full
_citation_year
_citation_journal_volume
_citation_page_first
_citation_page_last
_citation_journal_id_ASTM
primary 'Zeitschrift fuer Kristallographie' 2007 222 218 225 ZEKRDZ
loop_
_publ_author_name
'Pani, M.'
'Fornasini, M.L.'
'Merlo, F.'
_cell_length_a 4.685(1)
_cell_length_b 7.294(2)
_cell_length_c 8.133(2)
_cell_angle_alpha 90.
_cell_angle_beta 90.
_cell_angle_gamma 90.
_cell_volume 277.92
_cell_formula_units_Z 4
_symmetry_space_group_name_H-M 'I m m a'
_symmetry_Int_Tables_number 74
_refine_ls_R_factor_all 0.017
loop_
_symmetry_equiv_pos_site_id
_symmetry_equiv_pos_as_xyz
1 '-x, y+1/2, -z'
2 '-x, -y+1/2, z'
3 '-x, y, z'
4 '-x, -y, -z'
5 'x, -y+1/2, z'
6 'x, y+1/2, -z'
7 'x, -y, -z'
8 'x, y, z'
9 '-x+1/2, y, -z+1/2'
10 '-x+1/2, -y, z+1/2'
11 '-x+1/2, y+1/2, z+1/2'
12 '-x+1/2, -y+1/2, -z+1/2'
13 'x+1/2, -y, z+1/2'
14 'x+1/2, y, -z+1/2'
15 'x+1/2, -y+1/2, -z+1/2'
16 'x+1/2, y+1/2, z+1/2'
loop_
_atom_type_symbol
_atom_type_oxidation_number
Ca0+ 0
Ag0+ 0
loop_
_atom_site_label
_atom_site_type_symbol
_atom_site_symmetry_multiplicity
_atom_site_Wyckoff_symbol
_atom_site_fract_x
_atom_site_fract_y
_atom_site_fract_z
_atom_site_B_iso_or_equiv
_atom_site_occupancy
_atom_site_attached_hydrogens
Ca1 Ca0+ 4 e 0. 0.25 0.54617(17) 0.0148(3) 1 0
Ag1 Ag0+ 8 h 0. 0.05138(5) 0.16264(4) 0.01881(16) 1 0
loop_
_atom_site_aniso_label
_atom_site_aniso_type_symbol
_atom_site_aniso_U_11
_atom_site_aniso_U_22
_atom_site_aniso_U_33
_atom_site_aniso_U_12
_atom_site_aniso_U_13
_atom_site_aniso_U_23
Ca1 Ca0+ 0.0169(6) 0.0131(5) 0.0143(6) 0. 0. 0.
Ag1 Ag0+ 0.0156(2) 0.0256(2) 0.0152(2) 0. 0. 0.00250(15)
#End of TTdata_417225-ICSD
