
#(C) 2019 by FIZ Karlsruhe - Leibniz Institute for Information Infrastructure.  All rights reserved.
data_9922-ICSD
_database_code_ICSD 9922
_audit_creation_date 1980-01-01
_audit_update_record 2002-04-01
_chemical_name_systematic 'Silver(II) fluoride'
_chemical_formula_structural 'Ag F2'
_chemical_formula_sum 'Ag1 F2'
_chemical_name_structure_type AgF2
_exptl_crystal_density_diffrn 5.94
_publ_section_title

;
Crystal and magnetic structure of silver difluoride. I. Determination of the
Ag F2 structure
;
loop_
_citation_id
_citation_journal_full
_citation_year
_citation_journal_volume
_citation_page_first
_citation_page_last
_citation_journal_id_ASTM
primary 'Journal of Physics and Chemistry of Solids' 1971 32 543 550 JPCSAW
loop_
_publ_author_name
'Fischer, P.'
'Schwarzenbach, D.'
'Rietveld, H.M.'
_cell_length_a 5.073(5)
_cell_length_b 5.529(5)
_cell_length_c 5.813(5)
_cell_angle_alpha 90.
_cell_angle_beta 90.
_cell_angle_gamma 90.
_cell_volume 163.05
_cell_formula_units_Z 4
_symmetry_space_group_name_H-M 'P b c a'
_symmetry_Int_Tables_number 61
_refine_ls_R_factor_all 0.043
loop_
_symmetry_equiv_pos_site_id
_symmetry_equiv_pos_as_xyz
1 'x+1/2, y, -z+1/2'
2 'x, -y+1/2, z+1/2'
3 '-x+1/2, y+1/2, z'
4 '-x, -y, -z'
5 '-x+1/2, -y, z+1/2'
6 '-x, y+1/2, -z+1/2'
7 'x+1/2, -y+1/2, -z'
8 'x, y, z'
loop_
_atom_type_symbol
_atom_type_oxidation_number
Ag2+ 2
F1- -1
loop_
_atom_site_label
_atom_site_type_symbol
_atom_site_symmetry_multiplicity
_atom_site_Wyckoff_symbol
_atom_site_fract_x
_atom_site_fract_y
_atom_site_fract_z
_atom_site_B_iso_or_equiv
_atom_site_occupancy
_atom_site_attached_hydrogens
Ag1 Ag2+ 4 a 0 0 0 1.4 1. 0
F1 F1- 8 c 0.1847(11) 0.1941(9) 0.3708(10) 1.5 1. 0
#End of TTdata_9922-ICSD
