
#(C) 2019 by FIZ Karlsruhe - Leibniz Institute for Information Infrastructure.  All rights reserved.
data_199-ICSD
_database_code_ICSD 199
_audit_creation_date 1980-01-01
_audit_update_record 2010-02-01
_chemical_name_systematic 'Vanadium(IV) oxide - HT'
_chemical_formula_structural 'V O2'
_chemical_formula_sum 'O2 V1'
_chemical_name_structure_type VO2(HT)
_exptl_crystal_density_diffrn 4.02
_publ_section_title 'Essai sur la structure de V O2 (B)'
loop_
_citation_id
_citation_journal_full
_citation_year
_citation_journal_volume
_citation_page_first
_citation_page_last
_citation_journal_id_ASTM
primary 'Journal of Solid State Chemistry' 1976 17 431 438 JSSCBI
loop_
_publ_author_name
'Theobald, F.R.'
'Cabala, R.'
'Bernard, J.'
_cell_length_a 12.03(10)
_cell_length_b 3.693(10)
_cell_length_c 6.42(5)
_cell_angle_alpha 90.
_cell_angle_beta 106.1(1)
_cell_angle_gamma 90.
_cell_volume 274.03
_cell_formula_units_Z 8
_symmetry_space_group_name_H-M 'C 1 2/m 1'
_symmetry_Int_Tables_number 12
_refine_ls_R_factor_all 0.101
loop_
_symmetry_equiv_pos_site_id
_symmetry_equiv_pos_as_xyz
1 '-x, y, -z'
2 '-x, -y, -z'
3 'x, -y, z'
4 'x, y, z'
5 '-x+1/2, y+1/2, -z'
6 '-x+1/2, -y+1/2, -z'
7 'x+1/2, -y+1/2, z'
8 'x+1/2, y+1/2, z'
loop_
_atom_type_symbol
_atom_type_oxidation_number
V4+ 4
O2- -2
loop_
_atom_site_label
_atom_site_type_symbol
_atom_site_symmetry_multiplicity
_atom_site_Wyckoff_symbol
_atom_site_fract_x
_atom_site_fract_y
_atom_site_fract_z
_atom_site_B_iso_or_equiv
_atom_site_occupancy
_atom_site_attached_hydrogens
V1 V4+ 4 i 0.305(2) 0.5 0.725(1) . 1. 0
V2 V4+ 4 i 0.402(2) 0.5 0.300(1) . 1. 0
O1 O2- 4 i 0.363(2) 0.5 0.991(1) . 1. 0
O2 O2- 4 i 0.238(3) 0.5 0.373(9) . 1. 0
O3 O2- 4 i 0.434(8) 0.5 0.595(4) . 1. 0
O4 O2- 4 i 0.142(6) 0.5 0.729(7) . 1. 0
#End of TTdata_199-ICSD
