
#(C) 2019 by FIZ Karlsruhe - Leibniz Institute for Information Infrastructure.  All rights reserved.
data_114-ICSD
_database_code_ICSD 114
_audit_creation_date 1980-01-01
_audit_update_record 2011-08-01
_chemical_name_systematic 'Gadolinium phosphide (1/5)'
_chemical_formula_structural 'Gd P5'
_chemical_formula_sum 'Gd1 P5'
_chemical_name_structure_type GdP5
_exptl_crystal_density_diffrn 4.25
_publ_section_title 'Gadoliniumpentaphosphid Gd P5'
loop_
_citation_id
_citation_journal_full
_citation_year
_citation_journal_volume
_citation_page_first
_citation_page_last
_citation_journal_id_ASTM
primary 'Zeitschrift fuer Anorganische und Allgemeine Chemie (1950) (DE)' 1976
422 226 230 ZAACAB
loop_
_publ_author_name
'Menge, G.'
'von Schnering, H.G.'
_cell_length_a 4.928(3)
_cell_length_b 9.446(3)
_cell_length_c 5.370(2)
_cell_angle_alpha 90.
_cell_angle_beta 102.58(4)
_cell_angle_gamma 90.
_cell_volume 243.97
_cell_formula_units_Z 2
_symmetry_space_group_name_H-M 'P 1 21/m 1'
_symmetry_Int_Tables_number 11
_refine_ls_R_factor_all 0.039
loop_
_symmetry_equiv_pos_site_id
_symmetry_equiv_pos_as_xyz
1 'x, -y+1/2, z'
2 '-x, -y, -z'
3 '-x, y+1/2, -z'
4 'x, y, z'
loop_
_atom_type_symbol
_atom_type_oxidation_number
Gd0+ 0
P0+ 0
loop_
_atom_site_label
_atom_site_type_symbol
_atom_site_symmetry_multiplicity
_atom_site_Wyckoff_symbol
_atom_site_fract_x
_atom_site_fract_y
_atom_site_fract_z
_atom_site_B_iso_or_equiv
_atom_site_occupancy
_atom_site_attached_hydrogens
Gd1 Gd0+ 2 e 0.0096(1) 0.25 0.3510(1) . 1. 0
P1 P0+ 4 f 0.3824(5) 0.5912(2) 0.0435(4) . 1. 0
P2 P0+ 4 f 0.2868(5) 0.5308(3) 0.4029(4) . 1. 0
P3 P0+ 2 e 0.2805(7) 0.25 0.8989(7) . 1. 0
loop_
_atom_site_aniso_label
_atom_site_aniso_type_symbol
_atom_site_aniso_B_11
_atom_site_aniso_B_22
_atom_site_aniso_B_33
_atom_site_aniso_B_12
_atom_site_aniso_B_13
_atom_site_aniso_B_23
Gd1 Gd0+ 1.37 0.7 0.79 0 0.43 0
P1 P0+ 1.36 0.64 0.83 0.09 0.42 -.07
P2 P0+ 1.46 0.9 0.96 -.06 0.66 0.01
P3 P0+ 1.38 0.81 0.99 0 0.52 0
#End of TTdata_114-ICSD
