
#(C) 2019 by FIZ Karlsruhe - Leibniz Institute for Information Infrastructure.  All rights reserved.
data_365-ICSD
_database_code_ICSD 365
_audit_creation_date 1980-01-01
_audit_update_record 2011-08-01
_chemical_name_systematic 'Cesium technetate(VII)'
_chemical_formula_structural 'Cs (Tc O4)'
_chemical_formula_sum 'Cs1 O4 Tc1'
_chemical_name_structure_type CsIO4
_exptl_crystal_density_diffrn 4.05
_publ_section_title 'Die Kristallstruktur von Cs Tc O4'
loop_
_citation_id
_citation_journal_full
_citation_year
_citation_journal_volume
_citation_page_first
_citation_page_last
_citation_journal_id_ASTM
primary 'Zeitschrift fuer Anorganische und Allgemeine Chemie (1950) (DE)' 1976
420 40 50 ZAACAB
loop_
_publ_author_name
'Meyer, G.'
'Hoppe, R.'
_cell_length_a 5.72(7)
_cell_length_b 5.92(1)
_cell_length_c 14.34(1)
_cell_angle_alpha 90.
_cell_angle_beta 90.
_cell_angle_gamma 90.
_cell_volume 485.59
_cell_formula_units_Z 4
_symmetry_space_group_name_H-M 'P n m a'
_symmetry_Int_Tables_number 62
_refine_ls_R_factor_all 0.104
loop_
_symmetry_equiv_pos_site_id
_symmetry_equiv_pos_as_xyz
1 'x+1/2, y, -z+1/2'
2 'x, -y+1/2, z'
3 '-x+1/2, y+1/2, z+1/2'
4 '-x, -y, -z'
5 '-x+1/2, -y, z+1/2'
6 '-x, y+1/2, -z'
7 'x+1/2, -y+1/2, -z+1/2'
8 'x, y, z'
loop_
_atom_type_symbol
_atom_type_oxidation_number
Cs1+ 1
Tc7+ 7
O2- -2
loop_
_atom_site_label
_atom_site_type_symbol
_atom_site_symmetry_multiplicity
_atom_site_Wyckoff_symbol
_atom_site_fract_x
_atom_site_fract_y
_atom_site_fract_z
_atom_site_B_iso_or_equiv
_atom_site_occupancy
_atom_site_attached_hydrogens
Cs1 Cs1+ 4 c 0.0274(2) 0.25 0.1259(1) 1.46 1. 0
Tc1 Tc7+ 4 c 0.9620(2) 0.25 0.6207(1) 1.04 1. 0
O1 O2- 4 c 0.187(3) 0.25 0.917(1) 2.6 1. 0
O2 O2- 4 c 0.6667(3) 0.25 0.971(1) 2.9 1. 0
O3 O2- 8 d 0.999(2) 0.986(3) 0.3116(6) 2.9 1. 0
#End of TTdata_365-ICSD
