
#(C) 2019 by FIZ Karlsruhe - Leibniz Institute for Information Infrastructure.  All rights reserved.
data_118-ICSD
_database_code_ICSD 118
_audit_creation_date 1980-01-01
_audit_update_record 2009-08-01
_chemical_name_systematic 'Antimony(V) tetrachloride isocyanate'
_chemical_formula_structural 'Sb Cl4 (N C O)'
_chemical_formula_sum 'C1 Cl4 N1 O1 Sb1'
_exptl_crystal_density_diffrn 2.59
_publ_section_title
'Kristallstruktur von Antimontetrachloridcyanurat (Sb Cl4 N C O)3'
loop_
_citation_id
_citation_journal_full
_citation_year
_citation_journal_volume
_citation_page_first
_citation_page_last
_citation_journal_id_ASTM
primary 'Zeitschrift fuer Anorganische und Allgemeine Chemie (1950) (DE)' 1976
422 141 148 ZAACAB
loop_
_publ_author_name
'Mueller, U.'
_cell_length_a 11.67
_cell_length_b 11.67
_cell_length_c 9.95
_cell_angle_alpha 90.
_cell_angle_beta 90.
_cell_angle_gamma 120.
_cell_volume 1173.53
_cell_formula_units_Z 6
_symmetry_space_group_name_H-M 'P 63/m'
_symmetry_Int_Tables_number 176
_refine_ls_R_factor_all 0.036
loop_
_symmetry_equiv_pos_site_id
_symmetry_equiv_pos_as_xyz
1 '-x+y, -x, -z+1/2'
2 '-y, x-y, -z+1/2'
3 'x, y, -z+1/2'
4 'x-y, x, -z'
5 'y, -x+y, -z'
6 '-x, -y, -z'
7 'x-y, x, z+1/2'
8 'y, -x+y, z+1/2'
9 '-x, -y, z+1/2'
10 '-x+y, -x, z'
11 '-y, x-y, z'
12 'x, y, z'
loop_
_atom_type_symbol
_atom_type_oxidation_number
Sb5+ 5
Cl1- -1
N3- -3
C4+ 4
O2- -2
loop_
_atom_site_label
_atom_site_type_symbol
_atom_site_symmetry_multiplicity
_atom_site_Wyckoff_symbol
_atom_site_fract_x
_atom_site_fract_y
_atom_site_fract_z
_atom_site_B_iso_or_equiv
_atom_site_occupancy
_atom_site_attached_hydrogens
Sb1 Sb5+ 6 h 0.31844(8) 0.36195(8) 0.25 . 1. 0
Cl1 Cl1- 6 h 0.1845(4) 0.1380(3) 0.25 . 1. 0
Cl2 Cl1- 6 h 0.5277(3) 0.3913(4) 0.25 . 1. 0
Cl3 Cl1- 12 i 0.3119(3) 0.3761(3) 0.0185(3) . 1. 0
N1 N3- 6 h 0.372(1) 0.574(1) 0.25 3.3 1. 0
C1 C4+ 6 h 0.240(1) 0.537(1) 0.25 3. 1. 0
O1 O2- 6 h 0.164(1) 0.414(1) 0.25 3.3 1. 0
loop_
_atom_site_aniso_label
_atom_site_aniso_type_symbol
_atom_site_aniso_B_11
_atom_site_aniso_B_22
_atom_site_aniso_B_33
_atom_site_aniso_B_12
_atom_site_aniso_B_13
_atom_site_aniso_B_23
Sb1 Sb5+ 2.25(3) 2.09(3) 4.90(4) 1.09(3) 0 0
Cl1 Cl1- 3.8(2) 2.3(1) 12.3(4) 0.8(1) 0 0
Cl2 Cl1- 2.9(1) 4.6(2) 8.0(3) 2.3(1) 0 0
Cl3 Cl1- 5.0(1) 7.2(2) 4.6(1) 3.2(1) -.4(1) -.9(1)
#End of TTdata_118-ICSD
