
#(C) 2019 by FIZ Karlsruhe - Leibniz Institute for Information Infrastructure.  All rights reserved.
data_146-ICSD
_database_code_ICSD 146
_audit_creation_date 1980-01-01
_audit_update_record 2011-08-01
_chemical_name_systematic 'Pentaantimony heptaoxide iodide - alpha'
_chemical_formula_structural 'Sb5 O7 I'
_chemical_formula_sum 'I1 O7 Sb5'
_exptl_crystal_density_diffrn 5.64
_publ_section_title

;
The crystal structure of ferroelastic antimony(III) oxide iodide alpha Sb5 O7
I
;
loop_
_citation_id
_citation_journal_full
_citation_year
_citation_journal_volume
_citation_page_first
_citation_page_last
_citation_journal_id_ASTM
primary

;
Acta Crystallographica, Section B: Structural Crystallography and Crystal
Chemistry
; 1975 31 234 237 ACBCAR
loop_
_publ_author_name
'Kraemer, V.'
_cell_length_a 6.772(3)
_cell_length_b 12.726(4)
_cell_length_c 13.392(5)
_cell_angle_alpha 90.
_cell_angle_beta 120.1(1)
_cell_angle_gamma 90.
_cell_volume 998.5
_cell_formula_units_Z 4
_symmetry_space_group_name_H-M 'P 1 21/c 1'
_symmetry_Int_Tables_number 14
_refine_ls_R_factor_all 0.037
loop_
_symmetry_equiv_pos_site_id
_symmetry_equiv_pos_as_xyz
1 'x, -y+1/2, z+1/2'
2 '-x, -y, -z'
3 '-x, y+1/2, -z+1/2'
4 'x, y, z'
loop_
_atom_type_symbol
_atom_type_oxidation_number
Sb3+ 3
I1- -1
O2- -2
loop_
_atom_site_label
_atom_site_type_symbol
_atom_site_symmetry_multiplicity
_atom_site_Wyckoff_symbol
_atom_site_fract_x
_atom_site_fract_y
_atom_site_fract_z
_atom_site_B_iso_or_equiv
_atom_site_occupancy
_atom_site_attached_hydrogens
Sb1 Sb3+ 4 e -.0404(2) 0.2379(1) 0.4061(1) . 1. 0
Sb2 Sb3+ 4 e 0.3494(2) 0.2447(1) 0.2619(1) . 1. 0
Sb3 Sb3+ 4 e 0.6757(2) 0.2581(1) 0.5684(1) . 1. 0
Sb4 Sb3+ 4 e 0.3326(2) 0.0504(1) 0.5758(1) . 1. 0
Sb5 Sb3+ 4 e 0.3278(2) 0.4477(1) 0.5819(1) . 1. 0
I1 I1- 4 e 0.0305(3) -.0048(1) 0.2460(2) . 1. 0
O1 O2- 4 e 0.6649(24) 0.2514(12) 0.4147(14) 0.0111 1. 0
O2 O2- 4 e 0.4736(26) 0.1200(13) 0.0048(15) 0.0169 1. 0
O3 O2- 4 e 0.0258(26) 0.1164(13) 0.5074(15) 0.0163 1. 0
O4 O2- 4 e 0.5153(29) 0.1410(15) 0.2213(16) 0.0241 1. 0
O5 O2- 4 e 0.0916(29) 0.1661(14) 0.0389(16) 0.0237 1. 0
O6 O2- 4 e 0.4076(29) 0.1659(14) 0.4989(16) 0.0238 1. 0
O7 O2- 4 e 0.4617(30) 0.3654(15) 0.2175(16) 0.027 1. 0
loop_
_atom_site_aniso_label
_atom_site_aniso_type_symbol
_atom_site_aniso_U_11
_atom_site_aniso_U_22
_atom_site_aniso_U_33
_atom_site_aniso_U_12
_atom_site_aniso_U_13
_atom_site_aniso_U_23
Sb1 Sb3+ 0.0142(8) 0.0132(9) 0.0101(10) -.0003(5) 0.0058(6) 0.0004(6)
Sb2 Sb3+ 0.0107(8) 0.0173(9) 0.0132(10) 0.0021(5) 0.0047(6) 0.0025(6)
Sb3 Sb3+ 0.0120(8) 0.0148(9) 0.008(1) -.0007(5) 0.0017(6) 0.0010(6)
Sb4 Sb3+ 0.0140(8) 0.0080(9) 0.0173(11) 0.0002(5) 0.0061(7) -.0004(6)
Sb5 Sb3+ 0.0166(8) 0.0084(9) 0.0138(11) 0.0003(5) 0.0064(7) 0.0002(6)
I1 I1- 0.0279(9) 0.0182(10) 0.0285(12) 0.0009(7) 0.0125(8) -.0011(7)
#End of TTdata_146-ICSD
