
#(C) 2019 by FIZ Karlsruhe - Leibniz Institute for Information Infrastructure.  All rights reserved.
data_359-ICSD
_database_code_ICSD 359
_audit_creation_date 1980-01-01
_audit_update_record 2011-08-01
_chemical_name_systematic 'Cyclo-tris(imidophosphoric acid) dihydrate'
_chemical_formula_structural 'H3 (P O2 N H)3 (H2 O)2'
_chemical_formula_sum 'H10 N3 O8 P3'
_exptl_crystal_density_diffrn 1.97
_publ_section_title
'Dihydrat und primaeres Ammoniumsalz der Trimetaphosphimsaeure'
loop_
_citation_id
_citation_journal_full
_citation_year
_citation_journal_volume
_citation_page_first
_citation_page_last
_citation_journal_id_ASTM
primary 'Zeitschrift fuer Anorganische und Allgemeine Chemie (1950) (DE)' 1976
419 139 156 ZAACAB
loop_
_publ_author_name
'Attig, R.'
'Mootz, D.'
_cell_length_a 7.022(1)
_cell_length_b 14.008(1)
_cell_length_c 9.353(2)
_cell_angle_alpha 90.
_cell_angle_beta 93.34(2)
_cell_angle_gamma 90.
_cell_volume 918.44
_cell_formula_units_Z 4
_symmetry_space_group_name_H-M 'P 1 21/c 1'
_symmetry_Int_Tables_number 14
_refine_ls_R_factor_all 0.034
loop_
_symmetry_equiv_pos_site_id
_symmetry_equiv_pos_as_xyz
1 'x, -y+1/2, z+1/2'
2 '-x, -y, -z'
3 '-x, y+1/2, -z+1/2'
4 'x, y, z'
loop_
_atom_type_symbol
_atom_type_oxidation_number
P5+ 5
O2- -2
N3- -3
H1+ 1
loop_
_atom_site_label
_atom_site_type_symbol
_atom_site_symmetry_multiplicity
_atom_site_Wyckoff_symbol
_atom_site_fract_x
_atom_site_fract_y
_atom_site_fract_z
_atom_site_B_iso_or_equiv
_atom_site_occupancy
_atom_site_attached_hydrogens
P1 P5+ 4 e -.00443(8) 0.21368(4) 0.23992(5) . 1. 0
P2 P5+ 4 e 0.38349(7) 0.16073(4) 0.17706(5) . 1. 0
P3 P5+ 4 e 0.29540(8) 0.36113(4) 0.24789(6) . 1. 0
O1 O2- 4 e -.13861(19) 0.17880(11) 0.34505(15) . 1. 0
O2 O2- 4 e -.09507(22) 0.23821(11) 0.09070(15) . 1. 0
O3 O2- 4 e 0.50584(19) 0.14449(11) 0.31855(15) . 1. 0
O4 O2- 4 e 0.44571(22) 0.10671(11) 0.05208(15) . 1. 0
O5 O2- 4 e 0.42706(24) 0.37429(12) 0.38219(16) . 1. 0
O6 O2- 4 e 0.26705(28) 0.44951(11) 0.16144(17) . 1. 0
O7 O2- 4 e 0.71601(26) 0.48785(15) 0.34078(21) . 1. 0
O8 O2- 4 e 0.83989(79) 0.45319(45) 0.07255(70) . 0.5 0
O9 O2- 4 e 0.76180(84) 0.43931(57) 0.08962(81) . 0.5 0
N1 N3- 4 e 0.37346(24) 0.27641(12) 0.14203(17) . 1. 0
N2 N3- 4 e 0.09837(25) 0.31241(13) 0.30337(17) . 1. 0
N3 N3- 4 e 0.16731(23) 0.13484(12) 0.22131(18) . 1. 0
H1 H1+ 4 e 0.378(4) 0.292(2) 0.062(3) 2.2 1. 0
H2 H1+ 4 e 0.061(3) 0.331(2) 0.373(4) 2.2 1. 0
H3 H1+ 4 e 0.143(4) 0.086(2) 0.254(3) 2.2 1. 0
H4 H1+ 4 e -.093(5) 0.188(3) 0.023(4) 6.5 1. 0
H5 H1+ 4 e 0.624(5) 0.160(3) 0.315(4) 6.5 1. 0
H6 H1+ 4 e 0.626 0.447 0.351 8. 1. 0
H7 H1+ 4 e 0.805 0.485 0.398 8. 1. 0
H8 H1+ 4 e 0.748 0.474 0.25 8. 1. 0
H9 H1+ 4 e 0.784 0.483 0.024 8. 1. 0
H10 H1+ 4 e 0.83 0.392 0.05 8. 1. 0
loop_
_atom_site_aniso_label
_atom_site_aniso_type_symbol
_atom_site_aniso_B_11
_atom_site_aniso_B_22
_atom_site_aniso_B_33
_atom_site_aniso_B_12
_atom_site_aniso_B_13
_atom_site_aniso_B_23
P1 P5+ 1.36(2) 1.88(2) 1.01(2) -.06(2) -.03(1) 0.16(1)
P2 P5+ 1.31(2) 1.37(2) 1.28(2) 0.01(2) 0.08(2) 0.11(2)
P3 P5+ 2.63(3) 1.26(2) 1.16(2) -.38(2) 0.16(2) -.06(2)
O1 O2- 1.59(6) 3.38(6) 1.60(5) -.48(5) 0.23(5) -.25(5)
O2 O2- 3.00(7) 2.87(7) 1.39(6) 0.84(6) -.62(5) -.25(5)
O3 O2- 1.59(6) 2.88(7) 1.98(6) -.22(5) -.31(5) 0.71(5)
O4 O2- 2.88(7) 2.13(6) 2.09(6) 0.20(5) 0.79(6) -.26(5)
O5 O2- 3.73(8) 3.42(8) 1.47(6) -1.66(6) -.14(5) -.25(6)
O6 O2- 6.29(10) 1.36(6) 2.25(7) 0.07(7) 0.94(7) 0.24(5)
O7 O2- 3.33(8) 5.42(11) 3.68(9) -.34(8) -.76(7) -.12(8)
O8 O2- 4.72(30) 1.77(19) 2.00(21) 1.45(21) -1.12(21) -.11(15)
O9 O2- 4.72(32) 3.78(26) 2.37(17) 1.00(25) 0.94(23) 0.96(16)
N1 N3- 2.43(7) 1.46(7) 1.24(6) -.15(6) 0.38(5) 0.16(5)
N2 N3- 2.31(8) 2.04(7) 1.36(6) -.13(7) 0.44(6) -.44(6)
N3 N3- 1.57(7) 1.33(6) 2.22(7) -.19(5) 0.12(6) 0.38(6)
#End of TTdata_359-ICSD
