
#(C) 2019 by FIZ Karlsruhe - Leibniz Institute for Information Infrastructure.  All rights reserved.
data_307-ICSD
_database_code_ICSD 307
_audit_creation_date 1980-01-01
_audit_update_record 2015-02-01
_chemical_name_systematic 'Oxovanadium(IV) tecto-bis(phosphato(V))silicate'
_chemical_formula_structural '(V O) (Si P2 O8)'
_chemical_formula_sum 'O9 P2 Si1 V1'
_chemical_name_structure_type VOSiP2O8
_exptl_crystal_density_diffrn 3.03
_publ_section_title

;
Crystal structure of a condensed phosphatosilicate,
oxovanadium(IV)-diphosphatomonosilicate, V O (Si P2 O8)
;
loop_
_citation_id
_citation_journal_full
_citation_year
_citation_journal_volume
_citation_page_first
_citation_page_last
_citation_journal_id_ASTM
primary 'Inorganic Chemistry' 1976 15 345 348 INOCAJ
loop_
_publ_author_name
'Rice, C.E.'
'Robinson, W.R.'
'Tofield, B.C.'
_cell_length_a 8.747(2)
_cell_length_b 8.747(1)
_cell_length_c 8.167(2)
_cell_angle_alpha 90.
_cell_angle_beta 90.
_cell_angle_gamma 90.
_cell_volume 624.86
_cell_formula_units_Z 4
_symmetry_space_group_name_H-M 'P 4/n c c Z'
_symmetry_Int_Tables_number 130
_refine_ls_R_factor_all 0.061
loop_
_symmetry_equiv_pos_site_id
_symmetry_equiv_pos_as_xyz
1 'y+1/2, x+1/2, -z+1/2'
2 '-y, x+1/2, -z'
3 'y+1/2, -x, -z'
4 '-y, -x, -z+1/2'
5 'x+1/2, y+1/2, -z'
6 '-x, y+1/2, -z+1/2'
7 'x+1/2, -y, -z+1/2'
8 '-x, -y, -z'
9 '-y+1/2, -x+1/2, z+1/2'
10 'y, -x+1/2, z'
11 '-y+1/2, x, z'
12 'y, x, z+1/2'
13 '-x+1/2, -y+1/2, z'
14 'x, -y+1/2, z+1/2'
15 '-x+1/2, y, z+1/2'
16 'x, y, z'
loop_
_atom_type_symbol
_atom_type_oxidation_number
V4+ 4
P5+ 5
Si4+ 4
O2- -2
loop_
_atom_site_label
_atom_site_type_symbol
_atom_site_symmetry_multiplicity
_atom_site_Wyckoff_symbol
_atom_site_fract_x
_atom_site_fract_y
_atom_site_fract_z
_atom_site_B_iso_or_equiv
_atom_site_occupancy
_atom_site_attached_hydrogens
V1 V4+ 4 c 0.25 0.25 0.35333(5) . 1. 0
P1 P5+ 8 f -.07107(4) 0.07107(4) 0.25 . 1. 0
Si1 Si4+ 4 b 0.75 0.25 0.5 . 1. 0
O1 O2- 4 c 0.25 0.25 0.54817(25) . 1. 0
O2 O2- 16 g 0.41149(10) 0.40242(10) 0.30791(13) . 1. 0
O3 O2- 16 g -.31112(11) 0.38944(11) 0.38915(13) . 1. 0
loop_
_atom_site_aniso_label
_atom_site_aniso_type_symbol
_atom_site_aniso_beta_11
_atom_site_aniso_beta_22
_atom_site_aniso_beta_33
_atom_site_aniso_beta_12
_atom_site_aniso_beta_13
_atom_site_aniso_beta_23
V1 V4+ 0.00117(2) 0.00117(2) 0.00207(4) 0 0 0
P1 P5+ 0.00140(2) 0.00140(2) 0.00209(5) -.00012(3) -.00018(3) -.00018(3)
Si1 Si4+ 0.00185(2) 0.00185(2) 0.00153(7) 0 0 0
O1 O2- 0.00373(12) 0.00373(12) 0.00242(20) 0 0 0
O2 O2- 0.00177(10) 0.0023(1) 0.00454(12) -.00061(6) -.00118(6) 0.00034(9)
O3 O2- 0.00331(10) 0.00253(9) 0.00305(11) 0.00017(8) -.00107(9) 0.00106(9)
#End of TTdata_307-ICSD
