
#(C) 2019 by FIZ Karlsruhe - Leibniz Institute for Information Infrastructure.  All rights reserved.
data_212-ICSD
_database_code_ICSD 212
_audit_creation_date 1980-01-01
_audit_update_record 2009-08-01
_chemical_name_systematic
'Ammonium oxonium dodecamolybdophosphate(V) (2.6/0.4/1)'
_chemical_formula_structural '(N H4)2.6 (H3 O)0.4 (P Mo12 O40)'
_chemical_formula_sum 'H11.6 Mo12 N2.6 O40.4 P1'
_exptl_crystal_density_diffrn 3.89
_publ_section_title

;
Crystallographic study of the ammonium/potassium 12-molybdophosphate
ion-exchange system
;
loop_
_citation_id
_citation_journal_full
_citation_year
_citation_journal_volume
_citation_page_first
_citation_page_last
_citation_journal_id_ASTM
primary 'Journal of Solid State Chemistry' 1976 18 191 199 JSSCBI
loop_
_publ_author_name
'Boeyens, J.C.A.'
'McDougal, G.J.'
'van Smit, J.'
_cell_length_a 11.70(1)
_cell_length_b 11.70(1)
_cell_length_c 11.70(1)
_cell_angle_alpha 90.
_cell_angle_beta 90.
_cell_angle_gamma 90.
_cell_volume 1601.61
_cell_formula_units_Z 2
_symmetry_space_group_name_H-M 'P n -3 m Z'
_symmetry_Int_Tables_number 224
_refine_ls_R_factor_all 0.048
loop_
_symmetry_equiv_pos_site_id
_symmetry_equiv_pos_as_xyz
1 '-y, x+1/2, z+1/2'
2 'y+1/2, x+1/2, -z'
3 'y+1/2, -x, z+1/2'
4 '-y, -x, -z'
5 '-z, x+1/2, y+1/2'
6 'z+1/2, x+1/2, -y'
7 'z+1/2, -x, y+1/2'
8 '-z, -x, -y'
9 'z+1/2, -y, x+1/2'
10 '-z, y+1/2, x+1/2'
11 'z+1/2, y+1/2, -x'
12 '-z, -y, -x'
13 'y+1/2, -z, x+1/2'
14 '-y, z+1/2, x+1/2'
15 'y+1/2, z+1/2, -x'
16 '-y, -z, -x'
17 'x+1/2, z+1/2, -y'
18 'x+1/2, -z, y+1/2'
19 '-x, z+1/2, y+1/2'
20 '-x, -z, -y'
21 'x+1/2, y+1/2, -z'
22 'x+1/2, -y, z+1/2'
23 '-x, y+1/2, z+1/2'
24 '-x, -y, -z'
25 'y, -x+1/2, -z+1/2'
26 '-y+1/2, -x+1/2, z'
27 '-y+1/2, x, -z+1/2'
28 'y, x, z'
29 'z, -x+1/2, -y+1/2'
30 '-z+1/2, -x+1/2, y'
31 '-z+1/2, x, -y+1/2'
32 'z, x, y'
33 '-z+1/2, y, -x+1/2'
34 'z, -y+1/2, -x+1/2'
35 '-z+1/2, -y+1/2, x'
36 'z, y, x'
37 '-y+1/2, z, -x+1/2'
38 'y, -z+1/2, -x+1/2'
39 '-y+1/2, -z+1/2, x'
40 'y, z, x'
41 '-x+1/2, -z+1/2, y'
42 '-x+1/2, z, -y+1/2'
43 'x, -z+1/2, -y+1/2'
44 'x, z, y'
45 '-x+1/2, -y+1/2, z'
46 '-x+1/2, y, -z+1/2'
47 'x, -y+1/2, -z+1/2'
48 'x, y, z'
loop_
_atom_type_symbol
_atom_type_oxidation_number
Mo6+ 6
O2- -2
P5+ 5
N3- -3
H1+ 1
O2- -2
loop_
_atom_site_label
_atom_site_type_symbol
_atom_site_symmetry_multiplicity
_atom_site_Wyckoff_symbol
_atom_site_fract_x
_atom_site_fract_y
_atom_site_fract_z
_atom_site_B_iso_or_equiv
_atom_site_occupancy
_atom_site_attached_hydrogens
Mo1 Mo6+ 24 k 0.4661(8) 0.4661(8) 0.2586(12) 2.44 1. 0
O1 O2- 24 k 0.6522(7) 0.6522(7) 0.0046(9) 2.31 1. 0
O2 O2- 24 k 0.0664(7) 0.0664(7) 0.7677(9) 2.47 1. 0
O3 O2- 24 k 0.1233(7) 0.1233(7) 0.5383(9) 2.59 1. 0
O4 O2- 8 e 0.3257(9) 0.3257(9) 0.3257(9) 1.7 1. 0
P1 P5+ 2 a 0.25 0.25 0.25 1.77 1. 0
N1 N3- 6 d 0.25 0.75 0.75 2.44 0.866 0
H1 H1+ 24 k 0.78 0.78 0.32 . 0.967 0
O5 O2- 6 d 0.25 0.75 0.75 . 0.133 0
#End of TTdata_212-ICSD
