
#(C) 2019 by FIZ Karlsruhe - Leibniz Institute for Information Infrastructure.  All rights reserved.
data_141-ICSD
_database_code_ICSD 141
_audit_creation_date 1986-08-08
_audit_update_record 2009-08-01
_chemical_name_systematic
'Sodium lithium magnesium iron catena-alumosilicate hydroxide *'
_chemical_formula_structural
'Na0.08 Li7.28 Mg6.96 Fe6 (Al8.02 Si31.42 O88) (O H)8'
_chemical_formula_sum 'H8 Al8.02 Fe6 Li7.28 Mg6.96 Na0.08 O96 Si31.42'
_chemical_name_structure_type Amphibole#-(OR,Pnma)
_chemical_name_mineral Holmquistite
_exptl_crystal_density_diffrn 3.11
_publ_section_title
'A three-dimensional refinement of the structure of holmquistite'
loop_
_citation_id
_citation_journal_full
_citation_year
_citation_journal_volume
_citation_page_first
_citation_page_last
_citation_journal_id_ASTM
primary

;
Acta Crystallographica, Section B: Structural Crystallography and Crystal
Chemistry
; 1975 31 145 150 ACBCAR
loop_
_publ_author_name
'Irusteta, M.C.'
'Whittaker, E.J.W.'
_cell_length_a 18.28999
_cell_length_b 17.67
_cell_length_c 5.28
_cell_angle_alpha 90.
_cell_angle_beta 90.
_cell_angle_gamma 90.
_cell_volume 1706.41
_cell_formula_units_Z 1
_symmetry_space_group_name_H-M 'P n m a'
_symmetry_Int_Tables_number 62
_refine_ls_R_factor_all 0.056
loop_
_symmetry_equiv_pos_site_id
_symmetry_equiv_pos_as_xyz
1 'x+1/2, y, -z+1/2'
2 'x, -y+1/2, z'
3 '-x+1/2, y+1/2, z+1/2'
4 '-x, -y, -z'
5 '-x+1/2, -y, z+1/2'
6 '-x, y+1/2, -z'
7 'x+1/2, -y+1/2, -z+1/2'
8 'x, y, z'
loop_
_atom_type_symbol
_atom_type_oxidation_number
Mg2+ 2
Al3+ 3
Fe2+ 2
Fe3+ 3
Al3+ 3
Fe3+ 3
Mg2+ 2
Al3+ 3
Fe3+ 3
Fe2+ 2
Li1+ 1
Mg2+ 2
Na1+ 1
Al3+ 3
Si4+ 4
O2- -2
H1+ 1
loop_
_atom_site_label
_atom_site_type_symbol
_atom_site_symmetry_multiplicity
_atom_site_Wyckoff_symbol
_atom_site_fract_x
_atom_site_fract_y
_atom_site_fract_z
_atom_site_B_iso_or_equiv
_atom_site_occupancy
_atom_site_attached_hydrogens
Mg1 Mg2+ 8 d 0.1248(2) 0.1590(1) 0.3944(6) 0.008 0.52 0
Al1 Al3+ 8 d 0.1248(2) 0.1590(1) 0.3944(6) 0.008 0.08 0
Fe1 Fe2+ 8 d 0.1248(2) 0.1590(1) 0.3944(6) 0.008 0.37 0
Fe2 Fe3+ 8 d 0.1248(2) 0.1590(1) 0.3944(6) 0.008 0.03 0
Al2 Al3+ 8 d 0.1255(2) 0.0687(2) -.1045(7) 0.0077 0.81 0
Fe3 Fe3+ 8 d 0.1255(2) 0.0687(2) -.1045(7) 0.0077 0.07 0
Mg2 Mg2+ 8 d 0.1255(2) 0.0687(2) -.1045(7) 0.0077 0.12 0
Mg3 Mg2+ 4 c 0.1255(2) 0.25 -.1061(8) 0.0087 0.36 0
Al3 Al3+ 4 c 0.1255(2) 0.25 -.1061(8) 0.0087 0.08 0
Fe4 Fe3+ 4 c 0.1255(2) 0.25 -.1061(8) 0.0087 0.04 0
Fe5 Fe2+ 4 c 0.1255(2) 0.25 -.1061(8) 0.0087 0.52 0
Li1 Li1+ 8 d 0.1221(10) -.0086(8) 0.3988(37) 0.019 0.91 0
Mg4 Mg2+ 8 d 0.1221(10) -.0086(8) 0.3988(37) 0.019 0.05 0
Na1 Na1+ 8 d 0.1221(10) -.0086(8) 0.3988(37) 0.019 0.01 0
Al4 Al3+ 8 d 0.2738(2) 0.0761(2) -.4265(6) 0.0053 0.036 0
Al5 Al3+ 8 d -.0244(2) 0.0769(2) 0.2146(6) 0.0056 0.036 0
Si1 Si4+ 8 d 0.2695(2) 0.1621(2) 0.0673(6) 0.0054 1. 0
Si2 Si4+ 8 d -.0190(2) 0.1622(2) -.2770(6) 0.0051 1. 0
Si3 Si4+ 8 d 0.2738(2) 0.0761(2) -.4265(6) 0.0053 0.964 0
Si4 Si4+ 8 d -.0244(2) 0.0769(2) 0.2146(6) 0.0056 0.964 0
O1 O2- 8 d 0.1803(5) 0.1562(5) 0.0492(6) 0.0081(2) 1. 0
O2 O2- 8 d 0.0698(5) 0.1563(5) -.2611(15) 0.0091(2) 1. 0
O3 O2- 8 d 0.1848(5) 0.0747(5) -.4087(17) 0.0080(2) 1. 0
O4 O2- 8 d 0.0653(5) 0.0744(5) 0.1971(18) 0.0115(2) 1. 0
O5 O2- 4 c 0.1822(8) 0.25 -.4468(24) 0.0105(3) 1. 0
O6 O2- 4 c 0.0683(7) 0.25 0.2322(24) 0.0079(3) 1. 0
O7 O2- 8 d 0.1873(5) 0.0042(4) 0.0612(15) 0.0099(2) 1. 0
O8 O2- 8 d 0.0653(5) 0.0013(5) -.2692(16) 0.0098(2) 1. 0
O9 O2- 8 d 0.1943(4) -.1146(5) 0.3373(14) 0.0076(2) 1. 0
O10 O2- 8 d 0.0548(4) -.1134(5) 0.0505(15) 0.0075(2) 1. 0
O11 O2- 8 d 0.2034(4) -.1297(5) -.1686(16) 0.0116(2) 1. 0
O12 O2- 8 d 0.0462(4) -.1335(5) -.4494(15) 0.0091(2) 1. 0
O13 O2- 4 c -.2054(7) 0.25 -.5451(21) 0.0077(3) 1. 0
O14 O2- 4 c -.0424(7) 0.25 -.2424(23) 0.0121(3) 1. 0
#End of TTdata_141-ICSD
