
#(C) 2019 by FIZ Karlsruhe - Leibniz Institute for Information Infrastructure.  All rights reserved.
data_207-ICSD
_database_code_ICSD 207
_audit_creation_date 1980-01-01
_audit_update_record 2011-08-01
_chemical_name_systematic 'Ditin sulfide diiodide - beta'
_chemical_formula_structural 'Sn2 S I2'
_chemical_formula_sum 'I2 S1 Sn2'
_exptl_crystal_density_diffrn 5.37
_publ_section_title

;
Contribution a l'etude du systeme forme par l'etain, le soufre et l'iode mise
en evidence des deux varietes de l'iodosulfure stanneux Sn2 S I2: comportement
thermique et etude structurale
;
loop_
_citation_id
_citation_journal_full
_citation_year
_citation_journal_volume
_citation_page_first
_citation_page_last
_citation_journal_id_ASTM
primary 'Journal of Solid State Chemistry' 1976 18 175 182 JSSCBI
loop_
_publ_author_name
'Thevet, F.'
'Nguyen, H.D.'
'Dagron, C.'
'Flahaut, J.'
_cell_length_a 17.447(1)
_cell_length_b 25.334(2)
_cell_length_c 4.391(1)
_cell_angle_alpha 90.
_cell_angle_beta 90.
_cell_angle_gamma 90.
_cell_volume 1940.83
_cell_formula_units_Z 12
_symmetry_space_group_name_H-M 'P n a m'
_symmetry_Int_Tables_number 62
_refine_ls_R_factor_all 0.033
loop_
_symmetry_equiv_pos_site_id
_symmetry_equiv_pos_as_xyz
1 'x+1/2, -y+1/2, z'
2 'x, y, -z+1/2'
3 '-x+1/2, y+1/2, z+1/2'
4 '-x, -y, -z'
5 '-x+1/2, y+1/2, -z'
6 '-x, -y, z+1/2'
7 'x+1/2, -y+1/2, -z+1/2'
8 'x, y, z'
loop_
_atom_type_symbol
_atom_type_oxidation_number
Sn2+ 2
S2- -2
I1- -1
loop_
_atom_site_label
_atom_site_type_symbol
_atom_site_symmetry_multiplicity
_atom_site_Wyckoff_symbol
_atom_site_fract_x
_atom_site_fract_y
_atom_site_fract_z
_atom_site_B_iso_or_equiv
_atom_site_occupancy
_atom_site_attached_hydrogens
Sn1 Sn2+ 4 c 0.0129(2) 0.7223(1) 0.25 . 1. 0
Sn2 Sn2+ 4 c 0.3153(2) 0.6800(1) 0.25 . 1. 0
Sn3 Sn2+ 4 c 0.4681(2) 0.5651(1) 0.25 . 1. 0
Sn4 Sn2+ 4 c 0.4847(2) 0.0609(1) 0.25 . 1. 0
Sn5 Sn2+ 4 c 0.6691(2) 0.1636(1) 0.25 . 1. 0
Sn6 Sn2+ 4 c 0.8028(2) 0.0516(1) 0.25 . 1. 0
S1 S2- 4 c 0.3623(5) 0.7761(4) 0.25 . 1. 0
S2 S2- 4 c 0.5184(5) 0.1603(4) 0.25 . 1. 0
S3 S2- 4 c 0.9483(5) 0.0374(3) 0.25 . 1. 0
I1 I1- 4 c 0.0387(1) 0.1810(1) 0.25 . 1. 0
I2 I1- 4 c 0.1301(2) 0.5852(1) 0.25 . 1. 0
I3 I1- 4 c 0.1822(2) 0.0466(1) 0.25 . 1. 0
I4 I1- 4 c 0.2966(2) 0.2196(1) 0.25 . 1. 0
I5 I1- 4 c 0.6572(2) 0.6362(1) 0.25 . 1. 0
I6 I1- 4 c 0.8713(2) 0.5625(1) 0.25 . 1. 0
loop_
_atom_site_aniso_label
_atom_site_aniso_type_symbol
_atom_site_aniso_beta_11
_atom_site_aniso_beta_22
_atom_site_aniso_beta_33
_atom_site_aniso_beta_12
_atom_site_aniso_beta_13
_atom_site_aniso_beta_23
Sn1 Sn2+ 0.0014(1) 0.00097(5) 0.023(2) -.00019(6) 0 0
Sn2 Sn2+ 0.0028(1) 0.00067(6) 0.023(2) -.00016(6) 0 0
Sn3 Sn2+ 0.0021(1) 0.00055(5) 0.016(2) -.00019(7) 0 0
Sn4 Sn2+ 0.0017(1) 0.00066(5) 0.018(2) -.00016(7) 0 0
Sn5 Sn2+ 0.0014(9) 0.00074(5) 0.020(2) 0.00027(6) 0 0
Sn6 Sn2+ 0.0013(1) 0.00141(6) 0.019(2) 0.00029(6) 0 0
S1 S2- 0.0006(3) 0.0004(1) 0.021(4) -.0002(1) 0 0
S2 S2- 0.0010(3) 0.0005(1) 0.025(5) -.0002(1) 0 0
S3 S2- 0.0009(3) 0.0003(1) 0.019(5) 0.0002(1) 0 0
I1 I1- 0.0019(1) 0.00055(4) 0.012(1) -.00019(5) 0 0
I2 I1- 0.0014(1) 0.00124(5) 0.011(2) -.00010(6) 0 0
I3 I1- 0.0014(1) 0.00087(4) 0.012(1) -.00010(5) 0 0
I4 I1- 0.0015(1) 0.00122(5) 0.015(2) 0.00015(5) 0 0
I5 I1- 0.0016(1) 0.00083(5) 0.011(1) -.00010(5) 0 0
I6 I1- 0.0013(1) 0.00074(4) 0.013(1) -.00010(5) 0 0
#End of TTdata_207-ICSD
