
#(C) 2019 by FIZ Karlsruhe - Leibniz Institute for Information Infrastructure.  All rights reserved.
data_348-ICSD
_database_code_ICSD 348
_audit_creation_date 1980-01-01
_audit_update_record 2009-08-01
_chemical_name_systematic 'Tricadmium cyclo-triphosphate(V) decahydrate'
_chemical_formula_structural 'Cd3 (P3 O9)2 (H2 O)10'
_chemical_formula_sum 'H20 Cd3 O28 P6'
_exptl_crystal_density_diffrn 2.64
_publ_section_title 'Trimetaphosphate de cadmium decahydrate'
loop_
_citation_id
_citation_journal_full
_citation_year
_citation_journal_volume
_citation_page_first
_citation_page_last
_citation_journal_id_ASTM
primary

;
Acta Crystallographica, Section B: Structural Crystallography and Crystal
Chemistry
; 1976 32 1894 1896 ACBCAR
loop_
_publ_author_name
'Averbuch-Pouchot, M.T.'
'Durif, A.'
'Guitel, J.C.'
_cell_length_a 9.424(8)
_cell_length_b 17.87(1)
_cell_length_c 7.762(7)
_cell_angle_alpha 90.
_cell_angle_beta 107.72(1)
_cell_angle_gamma 90.
_cell_volume 1245.16
_cell_formula_units_Z 2
_symmetry_space_group_name_H-M 'P 1 21/n 1'
_symmetry_Int_Tables_number 14
_refine_ls_R_factor_all 0.028
loop_
_symmetry_equiv_pos_site_id
_symmetry_equiv_pos_as_xyz
1 '-x+1/2, y+1/2, -z+1/2'
2 '-x, -y, -z'
3 'x+1/2, -y+1/2, z+1/2'
4 'x, y, z'
loop_
_atom_type_symbol
_atom_type_oxidation_number
Cd2+ 2
P5+ 5
O2- -2
H1+ 1
loop_
_atom_site_label
_atom_site_type_symbol
_atom_site_symmetry_multiplicity
_atom_site_Wyckoff_symbol
_atom_site_fract_x
_atom_site_fract_y
_atom_site_fract_z
_atom_site_B_iso_or_equiv
_atom_site_occupancy
_atom_site_attached_hydrogens
Cd1 Cd2+ 4 e 0.31953(4) 0.71958(2) 0.08657(5) . 1. 0
Cd2 Cd2+ 2 d 0.5 0 0 . 1. 0
P1 P5+ 4 e 0.2986(1) 0.3117(1) 0.8186(2) . 1. 0
P2 P5+ 4 e 0.0749(1) 0.3123(1) 0.0070(2) . 1. 0
P3 P5+ 4 e 0.2025(1) 0.4521(1) 0.9480(2) . 1. 0
O1 O2- 4 e 0.1714(4) 0.2768(3) 0.8891(5) . 1. 0
O2 O2- 4 e 0.0662(4) 0.3984(2) 0.9507(5) . 1. 0
O3 O2- 4 e 0.3161(4) 0.3947(2) 0.9000(5) . 1. 0
O4 O2- 4 e 0.4384(4) 0.2698(2) 0.9055(6) . 1. 0
O5 O2- 4 e 0.2412(5) 0.3165(2) 0.6183(5) . 1. 0
O6 O2- 4 e 0.1609(6) 0.3070(3) 0.2016(6) . 1. 0
O7 O2- 4 e -.0761(5) 0.2796(2) -.0646(7) . 1. 0
O8 O2- 4 e 0.1445(5) 0.5073(2) 0.7995(6) . 1. 0
O9 O2- 4 e 0.2785(5) 0.4806(2) 0.1328(5) . 1. 0
O10 O2- 4 e 0.4114(5) 0.1182(2) 0.0414(6) . 1. 0
O11 O2- 4 e 0.1590(6) 0.1205(2) 0.2123(6) . 1. 0
O12 O2- 4 e 0.2004(5) 0.1400(2) 0.6446(6) . 1. 0
O13 O2- 4 e 0.4929(5) 0.3735(3) 0.3455(6) . 1. 0
O14 O2- 4 e 0.2007(5) 0.4521(3) 0.4433(5) . 1. 0
loop_
_atom_site_aniso_label
_atom_site_aniso_type_symbol
_atom_site_aniso_beta_11
_atom_site_aniso_beta_22
_atom_site_aniso_beta_33
_atom_site_aniso_beta_12
_atom_site_aniso_beta_13
_atom_site_aniso_beta_23
Cd1 Cd2+ 0.00410(4) 0.00128(1) 0.00671(8) -.00002(1) 0.00159(4) -.00014(2)
Cd2 Cd2+ 0.00638(6) 0.00157(2) 0.00729(11) -.00012(2) 0.00152(6) -.00007(3)
P1 P5+ 0.00322(12) 0.00097(3) 0.00614(22) -.00005(5) 0.00161(12) -.00029(6)
P2 P5+ 0.00363(13) 0.00106(4) 0.00620(22) -.00009(5) 0.00181(13) 0.00021(6)
P3 P5+ 0.00572(14) 0.00093(3) 0.00538(21) -.00019(6) 0.00137(12) -.00018(6)
O1 O2- 0.00653(48) 0.00107(11) 0.0186(10) -.00062(18) 0.00738(59) -.00110(24)
O2 O2- 0.0054(4) 0.00143(11) 0.0079(69) 0.00036(17) 0.00272(39) -.00007(21)
O3 O2- 0.00575(43) 0.00143(11) 0.00997(73) -.00083(18) 0.00353(43) -.00137(22)
O4 O2- 0.00379(39) 0.00155(12) 0.01389(84) 0.00003(17) 0.00195(43) -.00017(24)
O5 O2- 0.00966(54) 0.00095(11) 0.00707(70) 0.00009(19) 0.00125(45) -.00009(19)
O6 O2- 0.01193(65) 0.00188(14) 0.00770(78) -.00058(26) 0.00088(52) 0.00116(24)
O7 O2- 0.00450(42) 0.00180(14) 0.01683(96) -.00067(19) 0.00271(49) -.00064(26)
O8 O2- 0.00911(55) 0.00140(11) 0.00695(69) -.00055(20) 0.00077(45) 0.00076(21)
O9 O2- 0.00917(52) 0.00133(12) 0.00655(65) -.00013(20) 0.00127(44) -.00075(21)
O10 O2- 0.00961(58) 0.00139(12) 0.01288(89) 0.00048(21) 0.00461(55) 0.00029(24)
O11 O2- 0.01438(69) 0.00130(11) 0.00679(72) 0.00022(25) 0.00075(44) 0.00005(22)
O12 O2- 0.00963(56) 0.00189(14) 0.01103(74) 0.00143(23) 0.00517(51) 0.00136(26)
O13 O2- 0.00729(50) 0.00181(14) 0.0146(9) 0.00073(22) 0.00208(53) 0.00055(27)
O14 O2- 0.01009(60) 0.00235(16) 0.00915(76) 0.00095(25) 0.00482(52) 0.00030(26)
#End of TTdata_348-ICSD
