
#(C) 2019 by FIZ Karlsruhe - Leibniz Institute for Information Infrastructure.  All rights reserved.
data_330-ICSD
_database_code_ICSD 330
_audit_creation_date 1984-09-04
_audit_update_record 2011-08-01
_chemical_name_systematic
'Potassium molybdenum oxide hydroxide hydrate (0.31/4.85/15/1/2)'
_chemical_formula_structural 'K0.31 Mo4.85 O15 (O H) (H2 O)2'
_chemical_formula_sum 'H5 K0.31 Mo4.85 O18'
_exptl_crystal_density_diffrn 3.56
_publ_section_title
'Kristallstruktur des sogenannten Kaliumdekamolybdats K Mo5 O15 O H (H2 O)2'
loop_
_citation_id
_citation_journal_full
_citation_year
_citation_journal_volume
_citation_page_first
_citation_page_last
_citation_journal_id_ASTM
primary

;
Acta Crystallographica, Section B: Structural Crystallography and Crystal
Chemistry
; 1976 32 1697 1704 ACBCAR
loop_
_publ_author_name
'Krebs, B.'
'Paulat-Boeschen, I.'
_cell_length_a 10.550(8)
_cell_length_b 10.550(8)
_cell_length_c 3.727(3)
_cell_angle_alpha 90.
_cell_angle_beta 90.
_cell_angle_gamma 120.
_cell_volume 359.25
_cell_formula_units_Z 1
_symmetry_space_group_name_H-M 'P 63/m'
_symmetry_Int_Tables_number 176
_refine_ls_R_factor_all 0.042
loop_
_symmetry_equiv_pos_site_id
_symmetry_equiv_pos_as_xyz
1 '-x+y, -x, -z+1/2'
2 '-y, x-y, -z+1/2'
3 'x, y, -z+1/2'
4 'x-y, x, -z'
5 'y, -x+y, -z'
6 '-x, -y, -z'
7 'x-y, x, z+1/2'
8 'y, -x+y, z+1/2'
9 '-x, -y, z+1/2'
10 '-x+y, -x, z'
11 '-y, x-y, z'
12 'x, y, z'
loop_
_atom_type_symbol
_atom_type_oxidation_number
Mo6+ 6
O2- -2
K1+ 1
H1+ 1
loop_
_atom_site_label
_atom_site_type_symbol
_atom_site_symmetry_multiplicity
_atom_site_Wyckoff_symbol
_atom_site_fract_x
_atom_site_fract_y
_atom_site_fract_z
_atom_site_B_iso_or_equiv
_atom_site_occupancy
_atom_site_attached_hydrogens
Mo1 Mo6+ 6 h 0.10447(6) 0.45998(6) 0.25 . 0.808(12) 0
O1 O2- 6 h 0.0102(6) 0.2738(5) 0.25 . 1. 0
O2 O2- 6 h -.0797(5) 0.5008(5) 0.25 . 1. 0
O3 O2- 6 h 0.2811(5) 0.4981(5) 0.25 . 1. 0
K1 K1+ 2 b 0 0 0 . 0.154(4) 0
loop_
_atom_site_aniso_label
_atom_site_aniso_type_symbol
_atom_site_aniso_beta_11
_atom_site_aniso_beta_22
_atom_site_aniso_beta_33
_atom_site_aniso_beta_12
_atom_site_aniso_beta_13
_atom_site_aniso_beta_23
Mo1 Mo6+ 0.0175 0.0212 0.0036 0.0108 0 0
O1 O2- 0.035 0.027 0.025 0.012 0 0
O2 O2- 0.024 0.034 0.001 0.018 0 0
O3 O2- 0.022 0.032 0.014 0.016 0 0
K1 K1+ 0.082 0.082 0.24 0.041 0 0
#End of TTdata_330-ICSD
