
#(C) 2019 by FIZ Karlsruhe - Leibniz Institute for Information Infrastructure.  All rights reserved.
data_363-ICSD
_database_code_ICSD 363
_audit_creation_date 1980-01-01
_audit_update_record 2016-02-01
_chemical_name_systematic 'Dioxovanadium iodate(V) dihydrate'
_chemical_formula_structural '(V O2) (I O3) (H2 O)2'
_chemical_formula_sum 'H4 I1 O7 V1'
_exptl_crystal_density_diffrn 3.46
_publ_section_title 'Die Kristallstruktur von V O2 I O3 (H2 O)2'
loop_
_citation_id
_citation_journal_full
_citation_year
_citation_journal_volume
_citation_page_first
_citation_page_last
_citation_journal_id_ASTM
primary 'Zeitschrift fuer Anorganische und Allgemeine Chemie (1950) (DE)' 1976
419 25 30 ZAACAB
loop_
_publ_author_name
'Meschede, W.'
'Mattes, R.'
_cell_length_a 9.848(2)
_cell_length_b 8.158(2)
_cell_length_c 7.192(2)
_cell_angle_alpha 90.
_cell_angle_beta 102.17(2)
_cell_angle_gamma 90.
_cell_volume 564.82
_cell_formula_units_Z 4
_symmetry_space_group_name_H-M 'P 1 21/c 1'
_symmetry_Int_Tables_number 14
_refine_ls_R_factor_all 0.032
loop_
_symmetry_equiv_pos_site_id
_symmetry_equiv_pos_as_xyz
1 'x, -y+1/2, z+1/2'
2 '-x, -y, -z'
3 '-x, y+1/2, -z+1/2'
4 'x, y, z'
loop_
_atom_type_symbol
_atom_type_oxidation_number
I5+ 5
V5+ 5
O2- -2
H1+ 1
loop_
_atom_site_label
_atom_site_type_symbol
_atom_site_symmetry_multiplicity
_atom_site_Wyckoff_symbol
_atom_site_fract_x
_atom_site_fract_y
_atom_site_fract_z
_atom_site_B_iso_or_equiv
_atom_site_occupancy
_atom_site_attached_hydrogens
I1 I5+ 4 e 0.2270(1) 0.0031(1) 0.2520(1) . 1. 0
V1 V5+ 4 e 0.7203(1) 0.2439(1) 0.4586(1) . 1. 0
O1 O2- 4 e 0.7456(3) 0.1903(3) 0.1812(5) . 1. 0
O2 O2- 4 e 0.0980(4) 0.2048(4) 0.2787(6) . 1. 0
O3 O2- 4 e 0.8793(3) 0.4189(3) 0.0192(5) . 1. 0
O4 O2- 4 e 0.8860(4) 0.4215(4) 0.4124(6) . 1. 0
O5 O2- 4 e 0.5996(4) 0.1027(4) 0.4467(6) . 1. 0
O6 O2- 4 e 0.5841(4) 0.4145(4) 0.3454(6) . 1. 0
O7 O2- 4 e 0.3463(4) 0.2331(6) 0.1074(10) . 1. 0
loop_
_atom_site_aniso_label
_atom_site_aniso_type_symbol
_atom_site_aniso_beta_11
_atom_site_aniso_beta_22
_atom_site_aniso_beta_33
_atom_site_aniso_beta_12
_atom_site_aniso_beta_13
_atom_site_aniso_beta_23
I1 I5+ 0.0029(1) 0.0027(20) 0.0045(4) 0.0005(8) 0.0012(2) 0.0001(10)
V1 V5+ 0.0023(1) 0.0023(20) 0.0038(4) -.0001(7) 0.0009(2) 0.000(1)
O1 O2- 0.0040(6) 0.0038(80) 0.0047(20) -.0006(20) 0.0008(9) -.0007(30)
O2 O2- 0.0064(6) 0.0033(80) 0.0085(20) -.0005(20) 0.0014(10) -.0005(30)
O3 O2- 0.0040(7) 0.006(10) 0.0051(30) -.0021(30) 0.0012(20) -.0005(50)
O4 O2- 0.0045(9) 0.004(10) 0.0066(20) -.0018(30) 0.0025(10) -.0008(50)
O5 O2- 0.0053 0.0058 0.0103 -.0027 0.0021 -.0019
O6 O2- 0.0054(7) 0.006(10) 0.0095(30) 0.0021(20) 0.0003(10) 0.0007(40)
O7 O2- 0.0074(8) 0.010(10) 0.0413(20) -.0003(30) -.0017(10) 0.0052(50)
#End of TTdata_363-ICSD
