
#(C) 2019 by FIZ Karlsruhe - Leibniz Institute for Information Infrastructure.  All rights reserved.
data_111-ICSD
_database_code_ICSD 111
_audit_creation_date 1980-01-01
_audit_update_record 2007-08-01
_chemical_name_systematic 'Cesium oxide (7/1)'
_chemical_formula_structural 'Cs7 O'
_chemical_formula_sum 'Cs7 O1'
_exptl_crystal_density_diffrn 2.26
_cell_measurement_temperature 98.
_publ_section_title 'Metallreichstes Caesiumoxid - Cs7 O'
loop_
_citation_id
_citation_journal_full
_citation_year
_citation_journal_volume
_citation_page_first
_citation_page_last
_citation_journal_id_ASTM
primary 'Zeitschrift fuer Anorganische und Allgemeine Chemie (1950) (DE)' 1976
422 208 218 ZAACAB
loop_
_publ_author_name
'Simon, A.'
_cell_length_a 16.2440(20)
_cell_length_b 16.2440(20)
_cell_length_c 9.145(5)
_cell_angle_alpha 90.
_cell_angle_beta 90.
_cell_angle_gamma 120.
_cell_volume 2089.78
_cell_formula_units_Z 3
_symmetry_space_group_name_H-M 'P -6 m 2'
_symmetry_Int_Tables_number 187
_refine_ls_R_factor_all 0.038
loop_
_symmetry_equiv_pos_site_id
_symmetry_equiv_pos_as_xyz
1 'x, x-y, -z'
2 '-x+y, y, -z'
3 '-y, -x, -z'
4 'x, x-y, z'
5 '-x+y, y, z'
6 '-y, -x, z'
7 '-x+y, -x, -z'
8 '-y, x-y, -z'
9 'x, y, -z'
10 '-x+y, -x, z'
11 '-y, x-y, z'
12 'x, y, z'
loop_
_atom_type_symbol
_atom_type_oxidation_number
Cs0+ 0
O0+ 0
loop_
_atom_site_label
_atom_site_type_symbol
_atom_site_symmetry_multiplicity
_atom_site_Wyckoff_symbol
_atom_site_fract_x
_atom_site_fract_y
_atom_site_fract_z
_atom_site_B_iso_or_equiv
_atom_site_occupancy
_atom_site_attached_hydrogens
Cs1 Cs0+ 6 n 0.81357(7) -.81357(7) 0.21992(11) . 1. 0
Cs2 Cs0+ 2 i 0.6666 0.3333 0.20321(12) . 1. 0
Cs3 Cs0+ 3 j 0.55085(7) -.55085(7) 0 . 1. 0
Cs4 Cs0+ 3 k 0.44928(10) -.44928(10) 0.5 . 1. 0
Cs5 Cs0+ 3 j 0.21582(11) -.21582(11) 0 . 1. 0
Cs6 Cs0+ 3 k 0.11229(9) -.11229(9) 0.5 . 1. 0
Cs7 Cs0+ 1 a 0 0 0 . 1. 0
O1 O0+ 3 j 0.74805 -.74805 0 . 1. 0
loop_
_atom_site_aniso_label
_atom_site_aniso_type_symbol
_atom_site_aniso_B_11
_atom_site_aniso_B_22
_atom_site_aniso_B_33
_atom_site_aniso_B_12
_atom_site_aniso_B_13
_atom_site_aniso_B_23
Cs1 Cs0+ 7.62 7.62 9.13 4.85 -1.98 1.98
Cs2 Cs0+ 4.78 4.78 2.34 2.39 0 0
Cs3 Cs0+ 4.21 4.21 7.73 2.81 0 0
Cs4 Cs0+ 5.49 5.49 5.05 1.82 0 0
Cs5 Cs0+ 5.72 5.72 5.04 1.28 0 0
Cs6 Cs0+ 5.07 5.07 6.57 2.34 0 0
Cs7 Cs0+ 5.74 5.74 5.21 2.87 0 0
O1 O0+ 4.84 4.84 4.7 3.17 0 0
#End of TTdata_111-ICSD
