
#(C) 2019 by FIZ Karlsruhe - Leibniz Institute for Information Infrastructure.  All rights reserved.
data_293-ICSD
_database_code_ICSD 293
_audit_creation_date 1980-01-01
_audit_update_record 2010-08-01
_chemical_name_systematic 'Trinickel dihydroxide bis(tellurate(IV))'
_chemical_formula_structural 'Ni3 (O H)2 (Te O3)2'
_chemical_formula_sum 'H2 Ni3 O8 Te2'
_chemical_name_structure_type Ni3(OH)2(TeO3)2
_exptl_crystal_density_diffrn 5.14
_publ_section_title
'Structure cristalline des hydroxytellurites de nickel et de cobalt'
loop_
_citation_id
_citation_journal_full
_citation_year
_citation_journal_volume
_citation_page_first
_citation_page_last
_citation_journal_id_ASTM
primary 'Journal of Solid State Chemistry' 1976 17 143 149 JSSCBI
loop_
_publ_author_name
'Perez, G.'
'Lasserre, F.'
'Moret, J.'
'Maurin, M.'
_cell_length_a 12.993(6)
_cell_length_b 12.993(6)
_cell_length_c 4.958(3)
_cell_angle_alpha 90.
_cell_angle_beta 90.
_cell_angle_gamma 120.
_cell_volume 724.86
_cell_formula_units_Z 4
_symmetry_space_group_name_H-M 'P 63 m c'
_symmetry_Int_Tables_number 186
_refine_ls_R_factor_all 0.09
loop_
_symmetry_equiv_pos_site_id
_symmetry_equiv_pos_as_xyz
1 '-x, -x+y, z+1/2'
2 'x-y, -y, z+1/2'
3 'y, x, z+1/2'
4 'x-y, x, z+1/2'
5 'y, -x+y, z+1/2'
6 '-x, -y, z+1/2'
7 'x, x-y, z'
8 '-x+y, y, z'
9 '-y, -x, z'
10 '-x+y, -x, z'
11 '-y, x-y, z'
12 'x, y, z'
loop_
_atom_type_symbol
_atom_type_oxidation_number
Te4+ 4
Ni2+ 2
O2- -2
H1+ 1
loop_
_atom_site_label
_atom_site_type_symbol
_atom_site_symmetry_multiplicity
_atom_site_Wyckoff_symbol
_atom_site_fract_x
_atom_site_fract_y
_atom_site_fract_z
_atom_site_B_iso_or_equiv
_atom_site_occupancy
_atom_site_attached_hydrogens
Te1 Te4+ 6 c 0.1435(3) -.1435(3) 0 0.5 1. 0
Te2 Te4+ 2 b 0.6667 0.33333 0.909(1) 0.64 1. 0
Ni1 Ni2+ 12 d 0.4308(5) 0.3550(6) 0.955(1) 0.51 1. 0
O1 O2- 6 c 0.208(6) -.208(6) 0.276(6) 0.9 1. 0
O2 O2- 12 d 0.335(2) 0.051(2) 0.311(6) 0.9 1. 0
O3 O2- 6 c 0.399(3) -.399(3) 0.589(8) 0.7 1. 0
O4 O2- 6 c 0.473(3) -.473(3) 0.147(6) 1.4 1. 0
O5 O2- 2 a 0 0 0.152(5) 1.9 1. 0
#End of TTdata_293-ICSD
