
#(C) 2019 by FIZ Karlsruhe - Leibniz Institute for Information Infrastructure.  All rights reserved.
data_329-ICSD
_database_code_ICSD 329
_audit_creation_date 1980-01-01
_audit_update_record 2012-08-01
_chemical_name_systematic 'Dizinc hydrogentriphosphate(V) hexahydrate'
_chemical_formula_structural 'Zn2 (H P3 O10) (H2 O)6'
_chemical_formula_sum 'H13 O16 P3 Zn2'
_exptl_crystal_density_diffrn 1.97
_publ_section_title

;
Structure cristalline du tripolyphosphate acide de zinc hexahydrate, Zn2 H P3
O10 (H2 O)6
;
loop_
_citation_id
_citation_journal_full
_citation_year
_citation_journal_volume
_citation_page_first
_citation_page_last
_citation_journal_id_ASTM
primary

;
Acta Crystallographica, Section B: Structural Crystallography and Crystal
Chemistry
; 1976 32 1670 1673 ACBCAR
loop_
_publ_author_name
'Averbuch-Pouchot, M.T.'
'Guitel, J.C.'
_cell_length_a 10.714(8)
_cell_length_b 10.658(8)
_cell_length_c 8.391(5)
_cell_angle_alpha 114.51(1)
_cell_angle_beta 103.21(1)
_cell_angle_gamma 74.31(1)
_cell_volume 831.91
_cell_formula_units_Z 2
_symmetry_space_group_name_H-M 'P -1'
_symmetry_Int_Tables_number 2
_refine_ls_R_factor_all 0.06
loop_
_symmetry_equiv_pos_site_id
_symmetry_equiv_pos_as_xyz
1 '-x, -y, -z'
2 'x, y, z'
loop_
_atom_type_symbol
_atom_type_oxidation_number
Zn2+ 2
P5+ 5
O2- -2
H1+ 1
loop_
_atom_site_label
_atom_site_type_symbol
_atom_site_symmetry_multiplicity
_atom_site_Wyckoff_symbol
_atom_site_fract_x
_atom_site_fract_y
_atom_site_fract_z
_atom_site_B_iso_or_equiv
_atom_site_occupancy
_atom_site_attached_hydrogens
Zn1 Zn2+ 1 a 0 0 0 . 1. 0
Zn2 Zn2+ 1 e 0.5 0.5 0 . 1. 0
Zn3 Zn2+ 2 i 0.04808(8) 0.51380(8) 0.28237(10) . 1. 0
P1 P5+ 2 i 0.7939(2) 0.5531(2) 0.0242(2) . 1. 0
P2 P5+ 2 i 0.7723(2) 0.2789(2) -.0002(2) . 1. 0
P3 P5+ 2 i 0.9345(2) 0.2809(2) 0.3307(2) . 1. 0
O1 O2- 2 i 0.8849(5) 0.6077(6) 0.1924(7) . 1. 0
O2 O2- 2 i 0.6528(5) 0.6010(5) 0.0533(7) . 1. 0
O3 O2- 2 i 0.1793(5) 0.4185(6) 0.1245(7) . 1. 0
O4 O2- 2 i 0.8335(5) 0.3831(5) 0.9602(7) . 1. 0
O5 O2- 2 i 0.8455(5) 0.1350(5) 0.9105(7) . 1. 0
O6 O2- 2 i 0.6280(5) 0.3076(6) 0.9570(7) . 1. 0
O7 O2- 2 i 0.8037(5) 0.3261(5) 0.2088(6) . 1. 0
O8 O2- 2 i 0.0367(5) 0.3535(5) 0.3287(7) . 1. 0
O9 O2- 2 i 0.8898(5) 0.3364(5) 0.5111(6) . 1. 0
O10 O2- 2 i 0.9740(5) 0.1245(5) 0.2564(6) . 1. 0
O11 O2- 2 i 0.4812(6) 0.4658(7) 0.7270(8) . 1. 0
O12 O2- 2 i 0.1395(6) 0.1122(6) -.0088(9) . 1. 0
O13 O2- 2 i 0.3109(10) 0.2932(14) 0.4675(19) . 1. 0
O14 O2- 2 i 0.0069(8) 0.1009(7) 0.6408(9) . 1. 0
O15 O2- 2 i 0.6598(9) 0.2623(10) 0.5150(12) . 1. 0
O16 O2- 2 i 0.4720(6) 0.2630(8) 0.2025(9) . 1. 0
loop_
_atom_site_aniso_label
_atom_site_aniso_type_symbol
_atom_site_aniso_beta_11
_atom_site_aniso_beta_22
_atom_site_aniso_beta_33
_atom_site_aniso_beta_12
_atom_site_aniso_beta_13
_atom_site_aniso_beta_23
Zn1 Zn2+ 0.00448(12) 0.00405(13) 0.0685(21) 0.00044(10) 0.00110(12) 0.00148(13)
Zn2 Zn2+ 0.00286(11) 0.00573(14) 0.00890(22) -.00016(10) 0.00116(12) 0.00297(1)
Zn3 Zn2+ 0.00429(9) 0.00443(10) 0.00571(15) -.00131(7) 0.00066(8) 0.00136(9)
P1 P5+ 0.00275(17) 0.00431(20) 0.00619(31) -.00001(14) 0.00109(18) 0.00234(20)
P2 P5+ 0.00304(17) 0.00344(20) 0.00607(31) -.00006(14) 0.00031(18) 0.00138(20)
P3 P5+ 0.00353(17) 0.00358(19) 0.00462(29) -.00082(14) 0.00061(8) 0.00140(19)
O1 O2- 0.00575(59) 0.00664(68) 0.0099(10) -.00081(50) -.00177(61) 0.00224(68)
O2 O2- 0.00351(50) 0.00516(60) 0.0118(10) -.00025(4) 0.00247(58) 0.00186(64)
O3 O2- 0.00724(61) 0.00598(64) 0.0104(10) 0.00091(50) 0.00401(64) 0.00457(68)
O4 O2- 0.00350(48) 0.00529(60) 0.00889(94) 0.00044(42) 0.00209(54) 0.00270(61)
O5 O2- 0.00519(54) 0.00430(57) 0.00756(93) 0.00063(44) 0.0006(56) 0.00215(60)
O6 O2- 0.0034(5) 0.00643(65) 0.0120(11) -.00126(46) -.00080(58) 0.00348(63)
O7 O2- 0.00404(50) 0.00491(58) 0.00561(58) 0.00011(42) 0.00023(51) 0.00165(57)
O8 O2- 0.00494(52) 0.00617(63) 0.0115(10) -.00189(46) 0.00092(58) 0.00480(68)
O9 O2- 0.00508(52) 0.00576(61) 0.00543(86) -.00209(45) 0.00101(53) 0.00109(58)
O10 O2- 0.00636(55) 0.00297(52) 0.00642(87) -.00039(43) 0.00090(56) 0.00160(56)
O11 O2- 0.00750(67) 0.01226(89) 0.0103(11) -.00101(61) 0.00117(69) 0.00605(82)
O12 O2- 0.00835(72) 0.00676(72) 0.0191(14) -.00323(58) 0.00435(80) 0.00058(81)
O13 O2- 0.0110(12) 0.293(23) 0.0541(38) -0.0059(13) -0.0093(17) 0.0172(25)
O14 O2- 0.0217(11) 0.0824(77) 0.0167(14) 0.00353(75) 0.0111(10) 0.0112(25)
O15 O2- 0.0127(10) 0.0213(15) 0.0249(19) -0.0082(10) -0.0025(13) 0.01025(92)
O16 O2- 0.00771(70) 0.01333(96) 0.0163(14) -.00168(66) 0.00094(78) 0.00847(97)
#End of TTdata_329-ICSD
