
#(C) 2019 by FIZ Karlsruhe - Leibniz Institute for Information Infrastructure.  All rights reserved.
data_103-ICSD
_database_code_ICSD 103
_audit_creation_date 1980-01-01
_audit_update_record 2009-08-01
_chemical_name_systematic 'Diamminecopper hexahydroxostannate'
_chemical_formula_structural '(Cu (N H3)2) (Sn (O H)6)'
_chemical_formula_sum 'H12 Cu1 N2 O6 Sn1'
_exptl_crystal_density_diffrn 3.05
_publ_section_title

;
Darstellung und Kristallstruktur eines Hydroxostannates:
Kupferdiammin-hexahydroxostannat (N H3)2 Sn(O H)6
;
loop_
_citation_id
_citation_journal_full
_citation_year
_citation_journal_volume
_citation_page_first
_citation_page_last
_citation_journal_id_ASTM
primary 'Zeitschrift fuer Anorganische und Allgemeine Chemie (1950) (DE)' 1976
421 61 70 ZAACAB
loop_
_publ_author_name
'Dubler, E.'
'Hess, R.'
'Oswald, H.R.'
_cell_length_a 5.643(2)
_cell_length_b 6.621(2)
_cell_length_c 4.885(2)
_cell_angle_alpha 91.83(3)
_cell_angle_beta 93.58(3)
_cell_angle_gamma 107.69(3)
_cell_volume 173.3
_cell_formula_units_Z 1
_symmetry_space_group_name_H-M 'P -1'
_symmetry_Int_Tables_number 2
_refine_ls_R_factor_all 0.023
loop_
_symmetry_equiv_pos_site_id
_symmetry_equiv_pos_as_xyz
1 '-x, -y, -z'
2 'x, y, z'
loop_
_atom_type_symbol
_atom_type_oxidation_number
Sn4+ 4
Cu2+ 2
O2- -2
N3- -3
H1+ 1
loop_
_atom_site_label
_atom_site_type_symbol
_atom_site_symmetry_multiplicity
_atom_site_Wyckoff_symbol
_atom_site_fract_x
_atom_site_fract_y
_atom_site_fract_z
_atom_site_B_iso_or_equiv
_atom_site_occupancy
_atom_site_attached_hydrogens
Sn1 Sn4+ 1 a 0 0 0 . 1. 0
Cu1 Cu2+ 1 c 0 0.5 0 . 1. 0
O1 O2- 2 i 0.1076(4) 0.2790(3) 0.7943(4) . 1. 0
O2 O2- 2 i 0.1601(4) 0.8452(3) 0.7273(4) . 1. 0
O3 O2- 2 i 0.3270(4) 0.1114(3) 0.2391(4) . 1. 0
N1 N3- 2 i 0.3129(5) 0.5600(4) 0.2464(5) . 1. 0
H1 H1+ 2 i 0.02 0.25 0.632 0.044 1. 0
H2 H1+ 2 i 0.68 0.13 0.221 0.044 1. 0
H3 H1+ 2 i 0.295 0.055 0.4 0.044 1. 0
H4 H1+ 2 i 0.565 0.355 0.857 0.044 1. 0
H5 H1+ 2 i 0.71 0.39 0.589 0.044 1. 0
H6 H1+ 2 i 0.675 0.575 0.732 0.044 1. 0
loop_
_atom_site_aniso_label
_atom_site_aniso_type_symbol
_atom_site_aniso_U_11
_atom_site_aniso_U_22
_atom_site_aniso_U_33
_atom_site_aniso_U_12
_atom_site_aniso_U_13
_atom_site_aniso_U_23
Sn1 Sn4+ 0.01137(13) 0.01155(12) 0.01048(12) 0.00361(8) 0.00006(8) -.00089(7)
Cu1 Cu2+ 0.01460(22) 0.01279(19) 0.01302(19) 0.00527(17) -.00194(17) -.00273(14)
O1 O2- 0.01995(97) 0.01299(78) 0.01224(78) 0.00445(73) 0.00176(73) 0.00170(61)
O2 O2- 0.01611(95) 0.02314(91) 0.01309(80) 0.00883(78) -.00003(73) -.00488(67)
O3 O2- 0.01300(91) 0.02177(89) 0.01561(83) 0.00456(76) -.00264(73) -.00147(68)
N1 N3- 0.0197(12) 0.0203(11) 0.0210(11) 0.00536(94) -.00413(96) -.00469(85)
#End of TTdata_103-ICSD
