
#(C) 2019 by FIZ Karlsruhe - Leibniz Institute for Information Infrastructure.  All rights reserved.
data_82-ICSD
_database_code_ICSD 82
_audit_creation_date 1980-01-01
_audit_update_record 2011-08-01
_chemical_name_systematic 'Calcium dinitrate(V) dihydrate - alpha'
_chemical_formula_structural 'Ca (N O3)2 (H2 O)2'
_chemical_formula_sum 'H4 Ca1 N2 O8'
_exptl_crystal_density_diffrn 2.15
_publ_section_title
'Structure cristalline de l'hydrate Ca (N O3)2 * (H2 O)2 alpha'
loop_
_citation_id
_citation_journal_full
_citation_year
_citation_journal_volume
_citation_page_first
_citation_page_last
_citation_journal_id_ASTM
primary

;
Acta Crystallographica, Section B: Structural Crystallography and Crystal
Chemistry
; 1976 32 1496 1499 ACBCAR
loop_
_publ_author_name
'Leclaire, A.'
'Mitschler, A.'
'Monier, J.C.'
_cell_length_a 11.827(9)
_cell_length_b 16.538(14)
_cell_length_c 12.622(12)
_cell_angle_alpha 90.
_cell_angle_beta 90.
_cell_angle_gamma 90.
_cell_volume 2468.8
_cell_formula_units_Z 16
_symmetry_space_group_name_H-M 'C c c a Z'
_symmetry_Int_Tables_number 68
_refine_ls_R_factor_all 0.084
loop_
_symmetry_equiv_pos_site_id
_symmetry_equiv_pos_as_xyz
1 'x, y+1/2, -z'
2 '-x+1/2, y+1/2, -z+1/2'
3 'x+1/2, -y, -z+1/2'
4 '-x, -y, -z'
5 '-x, -y+1/2, z'
6 'x+1/2, -y+1/2, z+1/2'
7 '-x+1/2, y, z+1/2'
8 'x, y, z'
9 'x+1/2, y, -z'
10 '-x, y, -z+1/2'
11 'x, -y+1/2, -z+1/2'
12 '-x+1/2, -y+1/2, -z'
13 '-x+1/2, -y, z'
14 'x, -y, z+1/2'
15 '-x, y+1/2, z+1/2'
16 'x+1/2, y+1/2, z'
loop_
_atom_type_symbol
_atom_type_oxidation_number
Ca2+ 2
O2- -2
N5+ 5
O2- -2
N5+ 5
O2- -2
H1+ 1
loop_
_atom_site_label
_atom_site_type_symbol
_atom_site_symmetry_multiplicity
_atom_site_Wyckoff_symbol
_atom_site_fract_x
_atom_site_fract_y
_atom_site_fract_z
_atom_site_B_iso_or_equiv
_atom_site_occupancy
_atom_site_attached_hydrogens
Ca1 Ca2+ 8 f 0.5 0.51059(11) 0.25 . 1. 0
Ca2 Ca2+ 8 e 0.27196(15) 0.25 0.25 . 1. 0
O1 O2- 16 i 0.13048(51) 0.13275(35) 0.27624(40) . 1. 0
O2 O2- 16 i 0.02139(43) 0.12408(30) 0.41257(49) . 1. 0
O3 O2- 16 i 0.13076(48) 0.22657(32) 0.39081(52) . 1. 0
N1 N5+ 16 i 0.0925(5) 0.15981(36) 0.36143(54) . 1. 0
O4 O2- 16 i 0.38141(55) 0.12587(38) 0.20372(41) . 1. 0
O5 O2- 16 i 0.27399(49) 0.12827(33) 0.06603(51) . 1. 0
O6 O2- 16 i 0.37308(56) 0.02063(33) 0.10241(51) . 1. 0
N2 N5+ 16 i 0.34114(53) 0.0922(4) 0.12161(54) . 1. 0
O7 O2- 16 i 0.38771(48) 0.20739(32) 0.39638(50) . 1. 0
O8 O2- 16 i 0.36771(52) 0.03206(32) 0.3875(5) . 1. 0
H1 H1+ 16 i 0.35937 0.22708 0.46641 3.5 0.5 0
H2 H1+ 16 i 0.46675 0.22846 0.3911 3.5 0.5 0
H3 H1+ 16 i 0.39037 0.01243 0.45937 3.5 0.5 0
H4 H1+ 16 i 0.37458 0.09228 0.38943 3.5 0.5 0
H5 H1+ 16 i 0.62616 0.2253 0.02908 3.5 0.5 0
H6 H1+ 16 i 0.61546 0.147 0.10102 3.5 0.5 0
H7 H1+ 16 i 0.61819 0.02242 0.03541 3.5 0.5 0
H8 H1+ 16 i 0.71489 0.02166 0.12253 3.5 0.5 0
loop_
_atom_site_aniso_label
_atom_site_aniso_type_symbol
_atom_site_aniso_beta_11
_atom_site_aniso_beta_22
_atom_site_aniso_beta_33
_atom_site_aniso_beta_12
_atom_site_aniso_beta_13
_atom_site_aniso_beta_23
Ca1 Ca2+ 0.00272(11) 0.00121(6) 0.00288(14) 0 0.00022(15) 0
Ca2 Ca2+ 0.00297(12) 0.00116(5) 0.00320(15) 0 0 0.00029(11)
O1 O2- 0.00644(45) 0.00138(16) 0.00360(35) -.00066(24) 0.00114(37) -.00015(23)
O2 O2- 0.00424(47) 0.00130(16) 0.00600(46) 0.00001(23) 0.00145(33) 0.00053(24)
O3 O2- 0.00586(46) 0.00151(18) 0.00498(47) -.00047(27) 0.00111(38) -.00098(26)
N1 N5+ 0.00259(38) 0.00140(19) 0.00357(43) -.00007(24) -.00026(34) 0.00047(25)
O4 O2- 0.00699(47) 0.00150(17) 0.00349(33) 0.00029(26) -.00105(40) -.00058(28)
O5 O2- 0.00528(46) 0.00153(19) 0.00674(50) 0.00045(27) -.00177(39) 0.00109(27)
O6 O2- 0.00752(59) 0.00112(17) 0.00470(48) 0.00103(29) -.00132(42) -.00063(26)
N2 N5+ 0.00310(41) 0.00213(24) 0.00289(41) -.00022(28) -.00015(35) 0.00040(28)
O7 O2- 0.00520(42) 0.00163(18) 0.00313(36) 0.00068(24) -.00020(33) -.00008(23)
O8 O2- 0.00606(54) 0.00144(19) 0.00412(43) 0.00054(26) 0.00136(39) 0.00052(24)
#End of TTdata_82-ICSD
