
#(C) 2019 by FIZ Karlsruhe - Leibniz Institute for Information Infrastructure.  All rights reserved.
data_73-ICSD
_database_code_ICSD 73
_audit_creation_date 1980-01-01
_audit_update_record 2011-08-01
_chemical_name_systematic 'Molybdenum ditellurium oxide'
_chemical_formula_structural 'Mo Te2 O7'
_chemical_formula_sum 'Mo1 O7 Te2'
_chemical_name_structure_type SiP2O7
_exptl_crystal_density_diffrn 5.25
_publ_section_title
'Structure cristalline de l'oxide mixte de molybdene-tellure: Mo Te2 O7'
loop_
_citation_id
_citation_journal_full
_citation_year
_citation_journal_volume
_citation_page_first
_citation_page_last
_citation_journal_id_ASTM
primary

;
Acta Crystallographica, Section B: Structural Crystallography and Crystal
Chemistry
; 1976 32 1417 1420 ACBCAR
loop_
_publ_author_name
'Arnaud, Y.'
'Averbuch-Pouchot, M.T.'
'Durif, A.'
'Guidot, J.'
_cell_length_a 4.286
_cell_length_b 8.618
_cell_length_c 15.945
_cell_angle_alpha 90.
_cell_angle_beta 95.68
_cell_angle_gamma 90.
_cell_volume 586.06
_cell_formula_units_Z 4
_symmetry_space_group_name_H-M 'P 1 21/c 1'
_symmetry_Int_Tables_number 14
_refine_ls_R_factor_all 0.037
loop_
_symmetry_equiv_pos_site_id
_symmetry_equiv_pos_as_xyz
1 'x, -y+1/2, z+1/2'
2 '-x, -y, -z'
3 '-x, y+1/2, -z+1/2'
4 'x, y, z'
loop_
_atom_type_symbol
_atom_type_oxidation_number
Mo6+ 6
Te4+ 4
O2- -2
loop_
_atom_site_label
_atom_site_type_symbol
_atom_site_symmetry_multiplicity
_atom_site_Wyckoff_symbol
_atom_site_fract_x
_atom_site_fract_y
_atom_site_fract_z
_atom_site_B_iso_or_equiv
_atom_site_occupancy
_atom_site_attached_hydrogens
Mo1 Mo6+ 4 e 0.12276(13) 0.86526(6) 0.06805(3) . 1. 0
Te1 Te4+ 4 e 0.15406(9) 0.04167(4) 0.2727(3) . 1. 0
Te2 Te4+ 4 e 0.30688(9) 0.30443(4) 0.10936(3) . 1. 0
O1 O2- 4 e 0.9677(15) 0.1678(6) 0.4352(3) . 1. 0
O2 O2- 4 e 0.9422(12) 0.3970(6) 0.3148(3) . 1. 0
O3 O2- 4 e 0.4276(11) 0.1594(6) 0.1928(3) . 1. 0
O4 O2- 4 e 0.4302(11) 0.4814(6) 0.1891(3) . 1. 0
O5 O2- 4 e 0.9096(11) 0.3588(6) 0.1438(3) . 1. 0
O6 O2- 4 e 0.4812(13) 0.3729(7) 0.4323(3) . 1. 0
O7 O2- 4 e 0.0278(12) 0.1072(6) 0.0502(3) . 1. 0
loop_
_atom_site_aniso_label
_atom_site_aniso_type_symbol
_atom_site_aniso_beta_11
_atom_site_aniso_beta_22
_atom_site_aniso_beta_33
_atom_site_aniso_beta_12
_atom_site_aniso_beta_13
_atom_site_aniso_beta_23
Mo1 Mo6+ 0.01320(24) 0.00121(5) 0.00056(2) 0.00027(8) 0.00020(5) 0.00002(2)
Te1 Te4+ 0.00999(18) 0.00122(4) 0.00062(1) 0.00038(6) 0.00029(3) -.00001(2)
Te2 Te4+ 0.01107(18) 0.00144(4) 0.00056(1) 0.00022(6) 0.00083(3) 0.00011(2)
O1 O2- 0.032(3) 0.00195(51) 0.00105(18) 0.0001(11) -.00012(59) 0.00016(25)
O2 O2- 0.021(3) 0.00153(48) 0.00067(15) 0.00258(89) 0.00010(49) 0.00055(22)
O3 O2- 0.009(2) 0.00211(48) 0.00079(15) -.00064(81) 0.00053(43) 0.00059(22)
O4 O2- 0.009(2) 0.00303(53) 0.00098(16) -.00090(83) 0.00023(45) -.00100(24)
O5 O2- 0.010(2) 0.00222(51) 0.00107(17) -.00017(80) 0.00064(46) -.00076(23)
O6 O2- 0.014(2) 0.00541(68) 0.00117(18) 0.0000(10) -.00012(52) -.00001(29)
O7 O2- 0.017(2) 0.00220(49) 0.00056(15) 0.00044(88) 0.00021(45) -.00009(22)
#End of TTdata_73-ICSD
