
#(C) 2019 by FIZ Karlsruhe - Leibniz Institute for Information Infrastructure.  All rights reserved.
data_81-ICSD
_database_code_ICSD 81
_audit_creation_date 1980-01-01
_audit_update_record 2011-08-01
_chemical_name_systematic 'Tetralanthanum duo-dirhenium(IV) oxide'
_chemical_formula_structural 'La4 (Re2) O10'
_chemical_formula_sum 'La4 O10 Re2'
_exptl_crystal_density_diffrn 7.53
_publ_section_title

;
Crystal structure of La4 (Re2) O10, a fluorite-related structure containing
rhenium doublets
;
loop_
_citation_id
_citation_journal_full
_citation_year
_citation_journal_volume
_citation_page_first
_citation_page_last
_citation_journal_id_ASTM
primary

;
Acta Crystallographica, Section B: Structural Crystallography and Crystal
Chemistry
; 1976 32 1485 1489 ACBCAR
loop_
_publ_author_name
'Waltersson, K.'
_cell_length_a 8.935
_cell_length_b 8.935
_cell_length_c 6.011
_cell_angle_alpha 90.
_cell_angle_beta 90.
_cell_angle_gamma 90.
_cell_volume 479.88
_cell_formula_units_Z 2
_symmetry_space_group_name_H-M 'I 4/m'
_symmetry_Int_Tables_number 87
_refine_ls_R_factor_all 0.0351
loop_
_symmetry_equiv_pos_site_id
_symmetry_equiv_pos_as_xyz
1 '-y, x, -z'
2 'y, -x, -z'
3 'x, y, -z'
4 '-x, -y, -z'
5 'y, -x, z'
6 '-y, x, z'
7 '-x, -y, z'
8 'x, y, z'
9 '-y+1/2, x+1/2, -z+1/2'
10 'y+1/2, -x+1/2, -z+1/2'
11 'x+1/2, y+1/2, -z+1/2'
12 '-x+1/2, -y+1/2, -z+1/2'
13 'y+1/2, -x+1/2, z+1/2'
14 '-y+1/2, x+1/2, z+1/2'
15 '-x+1/2, -y+1/2, z+1/2'
16 'x+1/2, y+1/2, z+1/2'
loop_
_atom_type_symbol
_atom_type_oxidation_number
Re4+ 4
La3+ 3
O2- -2
loop_
_atom_site_label
_atom_site_type_symbol
_atom_site_symmetry_multiplicity
_atom_site_Wyckoff_symbol
_atom_site_fract_x
_atom_site_fract_y
_atom_site_fract_z
_atom_site_B_iso_or_equiv
_atom_site_occupancy
_atom_site_attached_hydrogens
Re1 Re4+ 4 e 0 0 0.18788(4) . 1. 0
La1 La3+ 8 h 0.18154(3) 0.39372(3) 0 . 1. 0
O1 O2- 4 d 0.5 0 0.25 . 1. 0
O2 O2- 16 i 0.09517(32) 0.18615(30) 0.25775(54) . 1. 0
loop_
_atom_site_aniso_label
_atom_site_aniso_type_symbol
_atom_site_aniso_beta_11
_atom_site_aniso_beta_22
_atom_site_aniso_beta_33
_atom_site_aniso_beta_12
_atom_site_aniso_beta_13
_atom_site_aniso_beta_23
Re1 Re4+ 0.00094(2) 0.00094(2) 0.00220(4) 0 0 0
La1 La3+ 0.00107(2) 0.00142(2) 0.00338(4) 0.00006(1) 0 0
O1 O2- 0.00166(39) 0.00166(39) 0.00152(61) 0 0 0
O2 O2- 0.00170(17) 0.00133(16) 0.00546(46) -.00018(13) -.00018(24) 0.00000(23)
#End of TTdata_81-ICSD
