
#(C) 2019 by FIZ Karlsruhe - Leibniz Institute for Information Infrastructure.  All rights reserved.
data_116-ICSD
_database_code_ICSD 116
_audit_creation_date 1980-01-01
_audit_update_record 2009-08-01
_chemical_name_systematic 'Dicesium trans-bromochlorotetrafluoroosmate(IV)'
_chemical_formula_structural 'Cs2 (Os Br Cl F4)'
_chemical_formula_sum 'Br1 Cl1 Cs2 F4 Os1'
_exptl_crystal_density_diffrn 4.85
_publ_section_title 'Kristallstruktur von trans-Cs2 (Os Br Cl F4)'
loop_
_citation_id
_citation_journal_full
_citation_year
_citation_journal_volume
_citation_page_first
_citation_page_last
_citation_journal_id_ASTM
primary 'Zeitschrift fuer Anorganische und Allgemeine Chemie (1950) (DE)' 1976
422 261 265 ZAACAB
loop_
_publ_author_name
'Keller, H.J.'
'Homborg, H.'
_cell_length_a 7.175(4)
_cell_length_b 7.175(4)
_cell_length_c 8.606(5)
_cell_angle_alpha 90.
_cell_angle_beta 90.
_cell_angle_gamma 90.
_cell_volume 443.04
_cell_formula_units_Z 2
_symmetry_space_group_name_H-M 'I 4/m m m'
_symmetry_Int_Tables_number 139
_refine_ls_R_factor_all 0.039
loop_
_symmetry_equiv_pos_site_id
_symmetry_equiv_pos_as_xyz
1 'y, x, -z'
2 '-y, -x, -z'
3 '-y, x, -z'
4 'y, -x, -z'
5 '-x, y, -z'
6 'x, -y, -z'
7 'x, y, -z'
8 '-x, -y, -z'
9 '-y, -x, z'
10 'y, x, z'
11 'y, -x, z'
12 '-y, x, z'
13 'x, -y, z'
14 '-x, y, z'
15 '-x, -y, z'
16 'x, y, z'
17 'y+1/2, x+1/2, -z+1/2'
18 '-y+1/2, -x+1/2, -z+1/2'
19 '-y+1/2, x+1/2, -z+1/2'
20 'y+1/2, -x+1/2, -z+1/2'
21 '-x+1/2, y+1/2, -z+1/2'
22 'x+1/2, -y+1/2, -z+1/2'
23 'x+1/2, y+1/2, -z+1/2'
24 '-x+1/2, -y+1/2, -z+1/2'
25 '-y+1/2, -x+1/2, z+1/2'
26 'y+1/2, x+1/2, z+1/2'
27 'y+1/2, -x+1/2, z+1/2'
28 '-y+1/2, x+1/2, z+1/2'
29 'x+1/2, -y+1/2, z+1/2'
30 '-x+1/2, y+1/2, z+1/2'
31 '-x+1/2, -y+1/2, z+1/2'
32 'x+1/2, y+1/2, z+1/2'
loop_
_atom_type_symbol
_atom_type_oxidation_number
Cs1+ 1
Os4+ 4
Br1- -1
Cl1- -1
F1- -1
loop_
_atom_site_label
_atom_site_type_symbol
_atom_site_symmetry_multiplicity
_atom_site_Wyckoff_symbol
_atom_site_fract_x
_atom_site_fract_y
_atom_site_fract_z
_atom_site_B_iso_or_equiv
_atom_site_occupancy
_atom_site_attached_hydrogens
Cs1 Cs1+ 4 d 0 0.5 0.25 . 1. 0
Os1 Os4+ 2 a 0 0 0 . 1. 0
Br1 Br1- 4 e 0 0 0.2898(8) . 0.5 0
Cl1 Cl1- 4 e 0 0 0.7178(8) . 0.5 0
F1 F1- 8 h 0.1908(9) 0.1908(9) 0 . 1. 0
loop_
_atom_site_aniso_label
_atom_site_aniso_type_symbol
_atom_site_aniso_beta_11
_atom_site_aniso_beta_22
_atom_site_aniso_beta_33
_atom_site_aniso_beta_12
_atom_site_aniso_beta_13
_atom_site_aniso_beta_23
Cs1 Cs1+ 0.01626(19) 0.01626(19) 0.01407(26) 0 0 0
Os1 Os4+ 0.00816(12) 0.00816(12) 0.00684(14) 0 0 0
Br1 Br1- 0.01919(66) 0.01919(66) 0.01594(80) 0 0 0
Cl1 Cl1- 0.00772(75) 0.00772(75) 0.00184(70) 0 0 0
F1 F1- 0.0284(18) 0.0284(18) 0.0108(13) -0.0179(23) 0 0
#End of TTdata_116-ICSD
