
#(C) 2019 by FIZ Karlsruhe - Leibniz Institute for Information Infrastructure.  All rights reserved.
data_279-ICSD
_database_code_ICSD 279
_audit_creation_date 1980-01-01
_audit_update_record 2011-08-01
_chemical_name_systematic 'Barium iron sulfide (15/7/25)'
_chemical_formula_structural 'Ba15 Fe7 S25'
_chemical_formula_sum 'Ba15 Fe7 S25'
_exptl_crystal_density_diffrn 4.26
_publ_section_title

;
Ba15 Fe7 S25 and Ba3 Fe S5. Crystal structures, Moessbauer, magnetic, and
electrical behavior
;
loop_
_citation_id
_citation_journal_full
_citation_year
_citation_journal_volume
_citation_page_first
_citation_page_last
_citation_journal_id_ASTM
primary 'Journal of Solid State Chemistry' 1976 16 117 128 JSSCBI
loop_
_publ_author_name
'Lemley, J.T.'
'Jenks, J.'
'Hoggins, J.'
'Eliezer, Z.'
'Steinfink, H.'
_cell_length_a 41.910(10)
_cell_length_b 9.572(3)
_cell_length_c 12.654(3)
_cell_angle_alpha 90.
_cell_angle_beta 90.
_cell_angle_gamma 90.
_cell_volume 5076.31
_cell_formula_units_Z 4
_symmetry_space_group_name_H-M 'P n m a'
_symmetry_Int_Tables_number 62
_refine_ls_R_factor_all 0.072
loop_
_symmetry_equiv_pos_site_id
_symmetry_equiv_pos_as_xyz
1 'x+1/2, y, -z+1/2'
2 'x, -y+1/2, z'
3 '-x+1/2, y+1/2, z+1/2'
4 '-x, -y, -z'
5 '-x+1/2, -y, z+1/2'
6 '-x, y+1/2, -z'
7 'x+1/2, -y+1/2, -z+1/2'
8 'x, y, z'
loop_
_atom_type_symbol
_atom_type_oxidation_number
Ba2+ 2
Fe2+ 2
Fe3+ 3
S2- -2
loop_
_atom_site_label
_atom_site_type_symbol
_atom_site_symmetry_multiplicity
_atom_site_Wyckoff_symbol
_atom_site_fract_x
_atom_site_fract_y
_atom_site_fract_z
_atom_site_B_iso_or_equiv
_atom_site_occupancy
_atom_site_attached_hydrogens
Ba1 Ba2+ 8 d 0.0149 0.5267(1) 0.1577(1) . 1. 0
Ba2 Ba2+ 4 c 0.024 0.75 0.4543(2) . 1. 0
Ba3 Ba2+ 8 d 0.1084 0.4886(1) 0.3432(1) . 1. 0
Ba4 Ba2+ 4 c 0.1124(1) 0.75 0.0592(1) . 1. 0
Ba5 Ba2+ 4 c 0.2253 0.75 0.4976(2) . 1. 0
Ba6 Ba2+ 8 d 0.3156 0.5274(1) 0.3951(1) . 1. 0
Ba7 Ba2+ 4 c 0.3153 0.75 0.0807(2) . 1. 0
Ba8 Ba2+ 8 d 0.4066 0.4958(1) 0.2042(1) . 1. 0
Ba9 Ba2+ 4 c 0.4139 0.75 0.4840(2) . 1. 0
Ba10 Ba2+ 8 d 0.2147 0.5156(2) 0.2215(2) . 1. 0
Fe1 Fe2+ 4 c 0.0299(1) 0.25 0.3396(4) . 1. 0
Fe2 Fe3+ 4 c 0.1451(1) 0.75 0.5096(4) . 1. 0
Fe3 Fe3+ 4 c 0.1589(1) 0.25 0.1532(4) . 1. 0
Fe4 Fe3+ 4 c 0.2650(1) 0.25 0.4428(4) . 1. 0
Fe5 Fe3+ 4 c 0.3293(1) 0.25 0.2050(4) . 1. 0
Fe6 Fe3+ 4 c 0.4435(1) 0.75 0.0390(4) . 1. 0
Fe7 Fe3+ 4 c 0.4635(1) 0.25 0.3976(4) . 1. 0
S1 S2- 4 c 0.0088(2) 0.25 0.0071(6) . 1. 0
S2 S2- 8 d 0.0373(2) 0.4381(6) 0.4465(5) . 1. 0
S3 S2- 4 c 0.0635(2) 0.75 0.2440(7) . 1. 0
S4 S2- 4 c 0.0668(2) 0.25 0.2176(7) . 1. 0
S5 S2- 8 d 0.1362(2) 0.4518(5) 0.1061(5) . 1. 0
S6 S2- 4 c 0.1686(3) 0.25 0.3266(7) . 1. 0
S7 S2- 4 c 0.1635(2) 0.75 0.3400(7) . 1. 0
S8 S2- 4 c 0.1904(2) 0.75 0.0506(8) . 1. 0
S9 S2- 4 c 0.2058(2) 0.25 0.0686(7) . 1. 0
S10 S2- 8 d 0.2398(1) 0.4453(5) 0.4772(5) . 1. 0
S11 S2- 4 c 0.2781(1) 0.25 0.2628(8) . 1. 0
S12 S2- 8 d 0.3354(1) 0.4397(6) 0.1001(5) . 1. 0
S13 S2- 4 c 0.3637(2) 0.75 0.3036(7) . 1. 0
S14 S2- 4 c 0.3661(2) 0.25 0.3274(7) . 1. 0
S15 S2- 4 c 0.3907(2) 0.75 0.0289(7) . 1. 0
S16 S2- 4 c 0.4071(2) 0.25 0.0271(7) . 1. 0
S17 S2- 8 d 0.4390(1) 0.4510(5) 0.4352(5) . 1. 0
S18 S2- 4 c 0.4633(2) 0.75 0.2089(7) . 1. 0
S19 S2- 4 c 0.4776(2) 0.25 0.2210(7) . 1. 0
S20 S2- 4 c 0.2656(2) 0.75 0.2765(8) . 1. 0
loop_
_atom_site_aniso_label
_atom_site_aniso_type_symbol
_atom_site_aniso_beta_11
_atom_site_aniso_beta_22
_atom_site_aniso_beta_33
_atom_site_aniso_beta_12
_atom_site_aniso_beta_13
_atom_site_aniso_beta_23
Ba1 Ba2+ 0.0002 0.0037(2) 0.0025(1) -.0001 -.0001 -.0001(1)
Ba2 Ba2+ 0.0002 0.0035(2) 0.0020(1) 0 0 0
Ba3 Ba2+ 0.0002 0.0047(2) 0.0024(1) 0 0.0001 0.0001(1)
Ba4 Ba2+ 0.0002 0.0033(3) 0.0019(1) 0 0.0001 0
Ba5 Ba2+ 0.0002 0.0035(3) 0.0028(1) 0 0.0001 0
Ba6 Ba2+ 0.0003 0.0050(2) 0.0030(1) 0 0.0001 0
Ba7 Ba2+ 0.0004 0.0036(3) 0.0025(1) 0 0.0002 0
Ba8 Ba2+ 0.0003 0.0050(3) 0.0023(1) 0 -.0001 -.0001(1)
Ba9 Ba2+ 0.0002 0.0036(3) 0.0021(1) 0 -.0001(1) 0
Ba10 Ba2+ 0.0004 0.0070(3) 0.0066(1) 0.0002 -.0006 -.0040(1)
Fe1 Fe2+ 0.0002 0.0038(5) 0.0010(3) 0 0.0000(1) 0
Fe2 Fe3+ 0.0001 0.0040(5) 0.0013(3) 0 -.0001(1) 0
Fe3 Fe3+ 0.0002 0.0020(4) 0.0011(3) 0 0.0000(1) 0
Fe4 Fe3+ 0.0002 0.0060(6) 0.0031(4) 0 0.0001(1) 0
Fe5 Fe3+ 0.0001 0.0037(5) 0.0011(3) 0 -.0001(1) 0
Fe6 Fe3+ 0.0001 0.0037(5) 0.0013(3) 0 0.0000(1) 0
Fe7 Fe3+ 0.0001 0.0023(4) 0.0010(3) 0 0.0001(1) 0
S1 S2- 0.0002 0.0049(8) 0.0014(5) 0 0.0000(1) 0
S2 S2- 0.0003 0.0046(6) 0.0036(4) 0.0001(1) 0.0000(1) 0.0000(4)
S3 S2- 0.0003 0.0040(6) 0.0018(5) 0 0.0000(1) 0
S4 S2- 0.0002 0.0097(10) 0.0019(5) 0 0.0000(1) 0
S5 S2- 0.0004 0.0034(6) 0.0021(4) 0.0002(1) 0.0001(1) 0.0000(4)
S6 S2- 0.0005(1) 0.0066(9) 0.0029(6) 0 -.0003(2) 0
S7 S2- 0.0002 0.0052(8) 0.0022(2) 0 0.0000(2) 0
S8 S2- 0.0002 0.0051(8) 0.0054(8) 0 -.0003(3) 0
S9 S2- 0.0001 0.0043(8) 0.0041(7) 0 0.0000(1) 0
S10 S2- 0.0002 0.0038(5) 0.0041(5) 0.0003(1) 0.0002(1) 0.0000(4)
S11 S2- 0.0003 0.0130(12) 0.0022(6) 0 0.0003(2) 0
S12 S2- 0.0002 0.0048(6) 0.0033(4) 0.0000(1) -.0001(1) -.0003(4)
S13 S2- 0.0002 0.0045(8) 0.0027(6) 0 0.0002(1) 0
S14 S2- 0.0003 0.0055(8) 0.0021(6) 0 -.0003(1) 0
S15 S2- 0 0.0053(8) 0.0043(6) 0 -.0001(1) 0
S16 S2- 0.0002 0.0054(8) 0.0030(6) 0 0.0002(2) 0
S17 S2- 0.0003 0.0036(5) 0.0027(4) 0.0001(1) 0.0000(1) 0.0000(4)
S18 S2- 0.0003 0.0075(10) 0.0025(6) 0 0.0000(1) 0
S19 S2- 0.0004(1) 0.0089(10) 0.0017(5) 0 0.0000(2) 0
S20 S2- 0.0002 0.0035(7) 0.0057(7) 0 0.0006(2) 0
#End of TTdata_279-ICSD
