
#(C) 2019 by FIZ Karlsruhe - Leibniz Institute for Information Infrastructure.  All rights reserved.
data_301-ICSD
_database_code_ICSD 301
_audit_creation_date 1980-01-01
_audit_update_record 2009-08-01
_chemical_name_systematic Tridecaborane(19)
_chemical_formula_structural 'B13 H19'
_chemical_formula_sum 'H19 B13'
_exptl_crystal_density_diffrn 0.91
_publ_section_title

;
Studies of boranes. XLV. Crystal and molecular structure, improved synthesis,
and reactions of tridecaborane(19)
;
loop_
_citation_id
_citation_journal_full
_citation_year
_citation_journal_volume
_citation_page_first
_citation_page_last
_citation_journal_id_ASTM
primary 'Inorganic Chemistry' 1976 15 227 232 INOCAJ
loop_
_publ_author_name
'Huffman, J.C.'
'Moody, D.C.'
'Schaeffer, R.'
_cell_length_a 9.217(2)
_cell_length_b 6.498(3)
_cell_length_c 19.719(5)
_cell_angle_alpha 90.
_cell_angle_beta 97.69
_cell_angle_gamma 90.
_cell_volume 1170.39
_cell_formula_units_Z 4
_symmetry_space_group_name_H-M 'P 1 21/c 1'
_symmetry_Int_Tables_number 14
_refine_ls_R_factor_all 0.113
loop_
_symmetry_equiv_pos_site_id
_symmetry_equiv_pos_as_xyz
1 'x, -y+1/2, z+1/2'
2 '-x, -y, -z'
3 '-x, y+1/2, -z+1/2'
4 'x, y, z'
loop_
_atom_type_symbol
_atom_type_oxidation_number
B0+ 0
H0+ 0
loop_
_atom_site_label
_atom_site_type_symbol
_atom_site_symmetry_multiplicity
_atom_site_Wyckoff_symbol
_atom_site_fract_x
_atom_site_fract_y
_atom_site_fract_z
_atom_site_B_iso_or_equiv
_atom_site_occupancy
_atom_site_attached_hydrogens
B1 B0+ 4 e 0.2877(4) 0.3484(7) 0.3110(2) . 1. 0
B2 B0+ 4 e 0.1270(5) 0.2352(8) 0.3366(2) . 1. 0
B3 B0+ 4 e 0.5132(5) 0.0449(6) 0.3582(3) . 1. 0
B4 B0+ 4 e 0.4177(4) 0.1788(6) 0.2897(6) . 1. 0
B5 B0+ 4 e 0.2276(4) 0.1081(7) 0.2746(2) . 1. 0
B6 B0+ 4 e 0.1376(6) -.0258(9) 0.3367(3) . 1. 0
B7 B0+ 4 e 0.1675(5) 0.1096(8) 0.4135(2) . 1. 0
B8 B0+ 4 e 0.2662(4) 0.3378(8) 0.3992(2) . 1. 0
B9 B0+ 4 e 0.4455(4) 0.3099(6) 0.3650(2) . 1. 0
B10 B0+ 4 e 0.5930(4) 0.2055(6) 0.4302(2) . 1. 0
B11 B0+ 4 e 0.5966(5) 0.4640(7) 0.4077(2) . 1. 0
B12 B0+ 4 e 0.7562(5) 0.3100(8) 0.4131(2) . 1. 0
B13 B0+ 4 e 0.7066(5) 0.0592(7) 0.3867(2) . 1. 0
H1 H0+ 4 e 0.2692(28) 0.4954(42) 0.2843(13) 2.64 1. 0
H2 H0+ 4 e 0.0302(34) 0.3194(50) 0.3225(14) 5.07 1. 0
H3 H0+ 4 e 0.4653(26) -.0956(41) 0.3788(12) 2.56 1. 0
H4 H0+ 4 e 0.4744(26) 0.2087(38) 0.2450(12) 2.56 1. 0
H5 H0+ 4 e 0.1748(28) 0.0962(40) 0.2192(13) 2.91 1. 0
H6 H0+ 4 e 0.0417(32) -.1463(49) 0.3239(13) 4.14 1. 0
H7 H0+ 4 e 0.0998(38) 0.0903(54) 0.4561(17) 6.4 1. 0
H8 H0+ 4 e 0.2558(33) 0.4693(47) 0.4323(16) 4.25 1. 0
H9 H0+ 4 e 0.5788(22) 0.1652(35) 0.4829(11) 1.36 1. 0
H10 H0+ 4 e 0.5964(28) 0.5942(43) 0.4429(13) 3.11 1. 0
H11 H0+ 4 e 0.8534(34) 0.3536(47) 0.4506(14) 4.55 1. 0
H12 H0+ 4 e 0.7659(29) -.0676(42) 0.4054(13) 2.71 1. 0
H13 H0+ 4 e 0.5211(31) 0.4858(42) 0.3550(15) 3.21 1. 0
H14 H0+ 4 e 0.2969(39) 0.1750(58) 0.4353(16) 6.74 1. 0
H15 H0+ 4 e 0.6291(32) 0.0169(41) 0.3302(14) 3.77 1. 0
H16 H0+ 4 e 0.7758(30) 0.2096(47) 0.3611(14) 4.01 1. 0
H17 H0+ 4 e 0.2449(35) -.0610(52) 0.3010(16) 5.15 1. 0
H18 H0+ 4 e 0.2079(33) -.0700(49) 0.3905(16) 4.74 1. 0
H19 H0+ 4 e 0.7130(34) 0.4610(47) 0.3776(15) 4.1 1. 0
loop_
_atom_site_aniso_label
_atom_site_aniso_type_symbol
_atom_site_aniso_beta_11
_atom_site_aniso_beta_22
_atom_site_aniso_beta_33
_atom_site_aniso_beta_12
_atom_site_aniso_beta_13
_atom_site_aniso_beta_23
B1 B0+ 0.0104(6) 0.0198(13) 0.0015(1) 0.0025(7) 0.0003(2) 0.0013(3)
B2 B0+ 0.0068(6) 0.0339(23) 0.0023(1) 0.0014(8) -.0006(2) 0.0020(4)
B3 B0+ 0.0086(6) 0.0169(12) 0.0022(1) -.0009(7) 0.0015(2) 0.0002(3)
B4 B0+ 0.0101(6) 0.0206(12) 0.0019(1) 0.0007(7) 0.0013(2) -.0007(3)
B5 B0+ 0.0097(6) 0.0256(15) 0.0023(1) 0.0015(8) 0.0006(2) 0.0008(4)
B6 B0+ 0.0106(7) 0.041(2) 0.0034(2) -.0015(10) 0.0004(3) 0.0011(4)
B7 B0+ 0.0077(6) 0.0390(19) 0.0026(2) 0.0024(9) 0.0010(2) 0.0027(4)
B8 B0+ 0.0099(6) 0.0298(15) 0.0017(1) 0.0051(8) 0.0004(2) 0.0007(4)
B9 B0+ 0.0095(6) 0.0137(11) 0.0020(1) 0.0008(7) 0.0015(2) 0.0009(3)
B10 B0+ 0.0081(6) 0.0178(12) 0.0020(1) -.0012(7) 0.0004(2) 0.0016(3)
B11 B0+ 0.0118(7) 0.0207(14) 0.0021(1) -.0008(8) -.0002(3) -.0003(4)
B12 B0+ 0.0117(7) 0.0293(16) 0.0023(1) 0.0002(9) 0.0011(3) 0.0002(4)
B13 B0+ 0.0099(6) 0.0218(14) 0.0024(1) 0.0023(8) 0.0004(2) 0.0004(4)
#End of TTdata_301-ICSD
