
#(C) 2019 by FIZ Karlsruhe - Leibniz Institute for Information Infrastructure.  All rights reserved.
data_154-ICSD
_database_code_ICSD 154
_audit_creation_date 1980-01-01
_audit_update_record 2009-08-01
_chemical_name_systematic 'Calcium antimony (2/1)'
_chemical_formula_structural 'Ca2 Sb'
_chemical_formula_sum 'Ca2 Sb1'
_chemical_name_structure_type La2Sb
_exptl_crystal_density_diffrn 3.72
_publ_section_title 'Etude structurale de Ca2 Sb'
loop_
_citation_id
_citation_journal_full
_citation_year
_citation_journal_volume
_citation_page_first
_citation_page_last
_citation_journal_id_ASTM
primary

;
Acta Crystallographica, Section B: Structural Crystallography and Crystal
Chemistry
; 1975 31 427 430 ACBCAR
loop_
_publ_author_name
'Hamon, C.'
'Marchand, R.'
'l'Haridon, P.'
'Laurent, Y.'
_cell_length_a 4.69(1)
_cell_length_b 4.69(1)
_cell_length_c 16.39(4)
_cell_angle_alpha 90.
_cell_angle_beta 90.
_cell_angle_gamma 90.
_cell_volume 360.52
_cell_formula_units_Z 4
_symmetry_space_group_name_H-M 'I 4 m m'
_symmetry_Int_Tables_number 107
_refine_ls_R_factor_all 0.069
loop_
_symmetry_equiv_pos_site_id
_symmetry_equiv_pos_as_xyz
1 '-y, x, z'
2 'y, -x, z'
3 '-y, -x, z'
4 'y, x, z'
5 'x, -y, z'
6 '-x, y, z'
7 '-x, -y, z'
8 'x, y, z'
9 '-y+1/2, x+1/2, z+1/2'
10 'y+1/2, -x+1/2, z+1/2'
11 '-y+1/2, -x+1/2, z+1/2'
12 'y+1/2, x+1/2, z+1/2'
13 'x+1/2, -y+1/2, z+1/2'
14 '-x+1/2, y+1/2, z+1/2'
15 '-x+1/2, -y+1/2, z+1/2'
16 'x+1/2, y+1/2, z+1/2'
loop_
_atom_type_symbol
_atom_type_oxidation_number
Sb0+ 0
Ca0+ 0
loop_
_atom_site_label
_atom_site_type_symbol
_atom_site_symmetry_multiplicity
_atom_site_Wyckoff_symbol
_atom_site_fract_x
_atom_site_fract_y
_atom_site_fract_z
_atom_site_B_iso_or_equiv
_atom_site_occupancy
_atom_site_attached_hydrogens
Sb1 Sb0+ 2 a 0 0 0.1322(2) 0.73 1. 0
Sb2 Sb0+ 2 a 0 0 0.8549(2) 0.49 1. 0
Ca1 Ca0+ 2 a 0 0 0.3238(7) 1.14 1. 0
Ca2 Ca0+ 2 a 0 0 0.6580(6) 0.52 1. 0
Ca3 Ca0+ 4 b 0 0.5 0 0.5 1. 0
#End of TTdata_154-ICSD
