
#(C) 2019 by FIZ Karlsruhe - Leibniz Institute for Information Infrastructure.  All rights reserved.
data_356-ICSD
_database_code_ICSD 356
_audit_creation_date 1980-01-01
_audit_update_record 2011-08-01
_chemical_name_systematic 'Dicopper(I) strontium tetrathiostannate'
_chemical_formula_structural 'Cu2 Sr (Sn S4)'
_chemical_formula_sum 'Cu2 S4 Sn1 Sr1'
_chemical_name_structure_type Cu2SnSrS4
_exptl_crystal_density_diffrn 4.31
_publ_section_title 'Darstellung und Kristallstruktur von Cu2 Sr Sn S4'
loop_
_citation_id
_citation_journal_full
_citation_year
_citation_journal_volume
_citation_page_first
_citation_page_last
_citation_journal_id_ASTM
primary 'Zeitschrift fuer Anorganische und Allgemeine Chemie (1950) (DE)' 1976
419 67 76 ZAACAB
loop_
_publ_author_name
'Teske, C.L.'
_cell_length_a 6.29
_cell_length_b 6.29
_cell_length_c 15.57(8)
_cell_angle_alpha 90.
_cell_angle_beta 90.
_cell_angle_gamma 120.
_cell_volume 533.48
_cell_formula_units_Z 3
_symmetry_space_group_name_H-M 'P 31'
_symmetry_Int_Tables_number 144
_refine_ls_R_factor_all 0.06
loop_
_symmetry_equiv_pos_site_id
_symmetry_equiv_pos_as_xyz
1 '-x+y, -x, z+2/3'
2 '-y, x-y, z+1/3'
3 'x, y, z'
loop_
_atom_type_symbol
_atom_type_oxidation_number
Sn4+ 4
Sr2+ 2
Cu1+ 1
S2- -2
loop_
_atom_site_label
_atom_site_type_symbol
_atom_site_symmetry_multiplicity
_atom_site_Wyckoff_symbol
_atom_site_fract_x
_atom_site_fract_y
_atom_site_fract_z
_atom_site_B_iso_or_equiv
_atom_site_occupancy
_atom_site_attached_hydrogens
Sn1 Sn4+ 3 a 0.3333 0.3736(1) 0.0814(2) . 1. 0
Sr1 Sr2+ 3 a 0.8935(2) 0.6666 0.25 . 1. 0
Cu1 Cu1+ 3 a 0.2578(5) 0.2469(5) 0.3374(2) . 1. 0
Cu2 Cu1+ 3 a 0.6765(5) 0.0849(5) 0.1600(2) . 1. 0
S1 S2- 3 a 0.3702(7) 0.1578(7) 0.2003(3) . 1. 0
S2 S2- 3 a 0.8781(1) 0.1735(8) 0.2943(3) . 1. 0
S3 S2- 3 a 0.9827(7) 0.4284(7) 0.0793(3) . 1. 0
S4 S2- 3 a 0.6838(7) 0.7789(6) 0.0817(3) . 1. 0
#End of TTdata_356-ICSD
