
#(C) 2019 by FIZ Karlsruhe - Leibniz Institute for Information Infrastructure.  All rights reserved.
data_342-ICSD
_database_code_ICSD 342
_audit_creation_date 1980-01-01
_audit_update_record 2011-08-01
_chemical_name_systematic 'Dicalcium borate chloride'
_chemical_formula_structural 'Ca2 (B O3) Cl'
_chemical_formula_sum 'B1 Ca2 Cl1 O3'
_exptl_crystal_density_diffrn 2.77
_publ_section_title
'The crystal structure of calcium borate chloride Ca Cl2 Ca3 (B O3)2'
loop_
_citation_id
_citation_journal_full
_citation_year
_citation_journal_volume
_citation_page_first
_citation_page_last
_citation_journal_id_ASTM
primary

;
Acta Crystallographica, Section B: Structural Crystallography and Crystal
Chemistry
; 1976 32 1784 1787 ACBCAR
loop_
_publ_author_name
'Zak, Z.'
'Hanic, F.'
_cell_length_a 3.9484(4)
_cell_length_b 8.692(2)
_cell_length_c 12.402(2)
_cell_angle_alpha 90.
_cell_angle_beta 100.27(1)
_cell_angle_gamma 90.
_cell_volume 418.81
_cell_formula_units_Z 4
_symmetry_space_group_name_H-M 'P 1 21/c 1'
_symmetry_Int_Tables_number 14
_refine_ls_R_factor_all 0.037
loop_
_symmetry_equiv_pos_site_id
_symmetry_equiv_pos_as_xyz
1 'x, -y+1/2, z+1/2'
2 '-x, -y, -z'
3 '-x, y+1/2, -z+1/2'
4 'x, y, z'
loop_
_atom_type_symbol
_atom_type_oxidation_number
Ca2+ 2
Cl1- -1
O2- -2
B3+ 3
loop_
_atom_site_label
_atom_site_type_symbol
_atom_site_symmetry_multiplicity
_atom_site_Wyckoff_symbol
_atom_site_fract_x
_atom_site_fract_y
_atom_site_fract_z
_atom_site_B_iso_or_equiv
_atom_site_occupancy
_atom_site_attached_hydrogens
Ca1 Ca2+ 4 e 0.2934(1) 0.6173(5) 0.3605(4) . 1. 0
Ca2 Ca2+ 4 e 0.3289(1) 0.1214(5) 0.3836(5) . 1. 0
Cl1 Cl1- 4 e 0.1989(2) 0.8747(5) 0.0876(1) . 1. 0
O1 O2- 4 e 0.4804(5) 0.3584(2) 0.0722(2) . 1. 0
O2 O2- 4 e 0.2244(4) 0.2305(2) 0.2053(1) . 1. 0
O3 O2- 4 e 0.1988(4) 0.5104(2) 0.1878(1) . 1. 0
B1 B3+ 4 e 0.2906(8) 0.3667(3) 0.1560(3) . 1. 0
loop_
_atom_site_aniso_label
_atom_site_aniso_type_symbol
_atom_site_aniso_beta_11
_atom_site_aniso_beta_22
_atom_site_aniso_beta_33
_atom_site_aniso_beta_12
_atom_site_aniso_beta_13
_atom_site_aniso_beta_23
Ca1 Ca2+ 0.0086(5) 0.0019(1) 0.00085(5) -.00003(1) 0.0008(1) -.00022(2)
Ca2 Ca2+ 0.0080(5) 0.0019(1) 0.0007(5) 0.00014(1) 0.0007(1) 0.00013(2)
Cl1 Cl1- 0.0158(5) 0.0028(1) 0.0016(5) 0.0012(1) 0.0015(1) 0.00002(3)
O1 O2- 0.0168(12) 0.0021(2) 0.0012(1) 0.0005(3) 0.0017(3) 0.0002(1)
O2 O2- 0.0109(10) 0.0024(2) 0.0010(1) -.0003(3) 0.0010(2) 0.0003(1)
O3 O2- 0.014(1) 0.0017(2) 0.0011(1) 0.0003(3) 0.0007(2) -.0001(1)
B1 B3+ 0.0087(7) 0.0037(3) 0.0008(2) -.0006(5) 0.0003(4) 0.0000(1)
#End of TTdata_342-ICSD
