
#(C) 2019 by FIZ Karlsruhe - Leibniz Institute for Information Infrastructure.  All rights reserved.
data_185-ICSD
_database_code_ICSD 185
_audit_creation_date 1980-01-01
_audit_update_record 2012-08-01
_chemical_name_systematic 'Diyttrium hafnium sulfide'
_chemical_formula_structural 'Y2 Hf S5'
_chemical_formula_sum 'Hf1 S5 Y2'
_chemical_name_structure_type Y2HfS5-U3S5
_exptl_crystal_density_diffrn 5.37
_publ_section_title
'Y2 Hf S5 with ordered U3 Se5 type structure and related compounds'
loop_
_citation_id
_citation_journal_full
_citation_year
_citation_journal_volume
_citation_page_first
_citation_page_last
_citation_journal_id_ASTM
primary

;
Acta Crystallographica, Section B: Structural Crystallography and Crystal
Chemistry
; 1975 31 1890 1895 ACBCAR
loop_
_publ_author_name
'Jeitschko, W.'
'Donohue, P.C.'
_cell_length_a 11.4585(3)
_cell_length_b 7.7215(3)
_cell_length_c 7.2207(2)
_cell_angle_alpha 90.
_cell_angle_beta 90.
_cell_angle_gamma 90.
_cell_volume 638.86
_cell_formula_units_Z 4
_symmetry_space_group_name_H-M 'P n m a'
_symmetry_Int_Tables_number 62
_refine_ls_R_factor_all 0.072
loop_
_symmetry_equiv_pos_site_id
_symmetry_equiv_pos_as_xyz
1 'x+1/2, y, -z+1/2'
2 'x, -y+1/2, z'
3 '-x+1/2, y+1/2, z+1/2'
4 '-x, -y, -z'
5 '-x+1/2, -y, z+1/2'
6 '-x, y+1/2, -z'
7 'x+1/2, -y+1/2, -z+1/2'
8 'x, y, z'
loop_
_atom_type_symbol
_atom_type_oxidation_number
Y3+ 3
Hf4+ 4
S2- -2
loop_
_atom_site_label
_atom_site_type_symbol
_atom_site_symmetry_multiplicity
_atom_site_Wyckoff_symbol
_atom_site_fract_x
_atom_site_fract_y
_atom_site_fract_z
_atom_site_B_iso_or_equiv
_atom_site_occupancy
_atom_site_attached_hydrogens
Y1 Y3+ 8 d 0.1778(1) 0.9974(2) 0.0251(2) . 1. 0
Hf1 Hf4+ 4 c 0.0060(1) 0.25 0.5742(1) . 1. 0
S1 S2- 8 d 0.4081(3) 0.0367(4) 0.1630(4) . 1. 0
S2 S2- 4 c 0.1822(4) 0.25 0.3331(7) . 1. 0
S3 S2- 4 c 0.5032(4) 0.25 0.5522(6) . 1. 0
S4 S2- 4 c 0.2921(4) 0.25 0.8125(6) . 1. 0
loop_
_atom_site_aniso_label
_atom_site_aniso_type_symbol
_atom_site_aniso_U_11
_atom_site_aniso_U_22
_atom_site_aniso_U_33
_atom_site_aniso_U_12
_atom_site_aniso_U_13
_atom_site_aniso_U_23
Y1 Y3+ 0.00156(9) 0.00170(16) 0.00233(18) -.00010(11) -.00030(9) 0.00075(18)
Hf1 Hf4+ 0.00165(6) 0.00253(10) 0.00219(12) 0 -.00004(7) 0
S1 S2- 0.00169(20) 0.00231(41) 0.00230(47) 0.00022(26) 0.00081(25) 0.00033(36)
S2 S2- 0.00121(28) 0.00156(57) 0.00313(73) 0 0.00053(39) 0
S3 S2- 0.00142(27) 0.00283(56) 0.00213(70) 0 0.00004(42) 0
S4 S2- 0.00168(31) 0.00166(59) 0.00185(68) 0 -.00044(37) 0
#End of TTdata_185-ICSD
