
#(C) 2019 by FIZ Karlsruhe - Leibniz Institute for Information Infrastructure.  All rights reserved.
data_132-ICSD
_database_code_ICSD 132
_audit_creation_date 1980-01-01
_audit_update_record 2010-02-01
_chemical_name_systematic 'Dipotassium hexafluorostannate hydrate'
_chemical_formula_structural 'K2 (Sn F6) (H2 O)'
_chemical_formula_sum 'H2 F6 K2 O1 Sn1'
_exptl_crystal_density_diffrn 3.12
_publ_section_title

;
Kristallicheskaya struktura monohidrata heksaflorstannatakaliya K2 Sn F6 (H2
O)
;
loop_
_citation_id
_citation_journal_full
_citation_year
_citation_journal_volume
_citation_page_first
_citation_page_last
_citation_journal_id_ASTM
primary 'Zhurnal Strukturnoi Khimii' 1976 17 505 509 ZSTKAI
loop_
_publ_author_name
'Baidina, I.A.'
'Bakakin, V.V.'
'Borisov, S.V.'
'Podberezskaya, N.V.'
_cell_length_a 11.65(2)
_cell_length_b 13.68(2)
_cell_length_c 17.570(50)
_cell_angle_alpha 90.
_cell_angle_beta 90.
_cell_angle_gamma 90.
_cell_volume 2800.17
_cell_formula_units_Z 16
_symmetry_space_group_name_H-M 'F d d d Z'
_symmetry_Int_Tables_number 70
_refine_ls_R_factor_all 0.123
loop_
_symmetry_equiv_pos_site_id
_symmetry_equiv_pos_as_xyz
1 'x+3/4, y+3/4, -z'
2 'x+3/4, -y, z+3/4'
3 '-x, y+3/4, z+3/4'
4 '-x, -y, -z'
5 '-x+1/4, -y+1/4, z'
6 '-x+1/4, y, -z+1/4'
7 'x, -y+1/4, -z+1/4'
8 'x, y, z'
9 'x+3/4, y+1/4, -z+1/2'
10 'x+3/4, -y+1/2, z+1/4'
11 '-x, y+1/4, z+1/4'
12 '-x, -y+1/2, -z+1/2'
13 '-x+1/4, -y+3/4, z+1/2'
14 '-x+1/4, y+1/2, -z+3/4'
15 'x, -y+3/4, -z+3/4'
16 'x, y+1/2, z+1/2'
17 'x+1/4, y+3/4, -z+1/2'
18 'x+1/4, -y, z+1/4'
19 '-x+1/2, y+3/4, z+1/4'
20 '-x+1/2, -y, -z+1/2'
21 '-x+3/4, -y+1/4, z+1/2'
22 '-x+3/4, y, -z+3/4'
23 'x+1/2, -y+1/4, -z+3/4'
24 'x+1/2, y, z+1/2'
25 'x+1/4, y+1/4, -z'
26 'x+1/4, -y+1/2, z+3/4'
27 '-x+1/2, y+1/4, z+3/4'
28 '-x+1/2, -y+1/2, -z'
29 '-x+3/4, -y+3/4, z'
30 '-x+3/4, y+1/2, -z+1/4'
31 'x+1/2, -y+3/4, -z+1/4'
32 'x+1/2, y+1/2, z'
loop_
_atom_type_symbol
_atom_type_oxidation_number
Sn4+ 4
K1+ 1
F1- -1
O2- -2
H1+ 1
loop_
_atom_site_label
_atom_site_type_symbol
_atom_site_symmetry_multiplicity
_atom_site_Wyckoff_symbol
_atom_site_fract_x
_atom_site_fract_y
_atom_site_fract_z
_atom_site_B_iso_or_equiv
_atom_site_occupancy
_atom_site_attached_hydrogens
Sn1 Sn4+ 16 f 0.125 0.9069(3) 0.125 1.37 1. 0
K1 K1+ 16 g 0.125 0.125 0.0037(8) 2.5 1. 0
K2 K1+ 16 e 0.313(1) 0.625 0.125 2.3 1. 0
F1 F1- 32 h 0.108(3) 0.914(3) 0.015(2) 3.9 1. 0
F2 F1- 32 h 0.016(3) 0.014(2) 0.137(2) 3.2 1. 0
F3 F1- 32 h 0.250(2) 0.812(2) 0.113(2) 2.6 1. 0
O1 O2- 16 g 0.125 0.625 0.226(3) 3.9 1. 0
#End of TTdata_132-ICSD
