
#(C) 2019 by FIZ Karlsruhe - Leibniz Institute for Information Infrastructure.  All rights reserved.
data_333-ICSD
_database_code_ICSD 333
_audit_creation_date 1980-01-01
_audit_update_record 2011-08-01
_chemical_name_systematic 'Diiron tetrathiogermanate'
_chemical_formula_structural 'Fe2 (Ge S4)'
_chemical_formula_sum 'Fe2 Ge1 S4'
_chemical_name_structure_type Olivine-Mg2SiO4
_exptl_crystal_density_diffrn 3.91
_publ_section_title

;
Polyhedral deformations in olivine-type compounds and the crystal structure of
Fe2 Si S4 and Fe2 Ge S4
;
loop_
_citation_id
_citation_journal_full
_citation_year
_citation_journal_volume
_citation_page_first
_citation_page_last
_citation_journal_id_ASTM
primary

;
Acta Crystallographica, Section B: Structural Crystallography and Crystal
Chemistry
; 1976 32 1749 1755 ACBCAR
loop_
_publ_author_name
'Vincent, H.'
'Bertaut, E.'
_cell_length_a 12.467(2)
_cell_length_b 7.213(1)
_cell_length_c 5.902(1)
_cell_angle_alpha 90.
_cell_angle_beta 90.
_cell_angle_gamma 90.
_cell_volume 530.73
_cell_formula_units_Z 4
_symmetry_space_group_name_H-M 'P n m a'
_symmetry_Int_Tables_number 62
_refine_ls_R_factor_all 0.044
loop_
_symmetry_equiv_pos_site_id
_symmetry_equiv_pos_as_xyz
1 'x+1/2, y, -z+1/2'
2 'x, -y+1/2, z'
3 '-x+1/2, y+1/2, z+1/2'
4 '-x, -y, -z'
5 '-x+1/2, -y, z+1/2'
6 '-x, y+1/2, -z'
7 'x+1/2, -y+1/2, -z+1/2'
8 'x, y, z'
loop_
_atom_type_symbol
_atom_type_oxidation_number
S2- -2
Ge4+ 4
Fe2+ 2
loop_
_atom_site_label
_atom_site_type_symbol
_atom_site_symmetry_multiplicity
_atom_site_Wyckoff_symbol
_atom_site_fract_x
_atom_site_fract_y
_atom_site_fract_z
_atom_site_B_iso_or_equiv
_atom_site_occupancy
_atom_site_attached_hydrogens
S1 S2- 4 c 0.4076(2) 0.25 0.7113(3) . 1. 0
S2 S2- 4 c 0.5729(1) 0.25 0.2441(3) . 1. 0
S3 S2- 8 d 0.3325(1) 0.0099(5) 0.2520(2) . 1. 0
Ge1 Ge4+ 4 c 0.4110(2) 0.25 0.0832(4) . 1. 0
Fe1 Fe2+ 4 a 0 0 0 . 1. 0
Fe2 Fe2+ 4 c 0.2294(1) 0.25 0.5067(2) . 1. 0
loop_
_atom_site_aniso_label
_atom_site_aniso_type_symbol
_atom_site_aniso_U_11
_atom_site_aniso_U_22
_atom_site_aniso_U_33
_atom_site_aniso_U_12
_atom_site_aniso_U_13
_atom_site_aniso_U_23
S1 S2- 0.0084(9) 0.0093(9) 0.0073(9) 0 0.0005(8) 0
S2 S2- 0.0060(8) 0.0108(9) 0.0098(9) 0 0.0002(8) 0
S3 S2- 0.0092(6) 0.0097(6) 0.0089(6) -.0021(5) 0.0002(5) -.0020(6)
Ge1 Ge4+ 0.0062(4) 0.0079(4) 0.0058(4) 0 0.0003(4) 0
Fe1 Fe2+ 0.0092(6) 0.0097(6) 0.0092(6) 0.0012(50) 0.0000(5) -.0005(6)
Fe2 Fe2+ 0.0069(6) 0.0105(6) 0.0103(6) 0 -.0003(5) 0
#End of TTdata_333-ICSD
