
#(C) 2019 by FIZ Karlsruhe - Leibniz Institute for Information Infrastructure.  All rights reserved.
data_172-ICSD
_database_code_ICSD 172
_audit_creation_date 1980-01-01
_audit_update_record 2011-08-01
_chemical_name_systematic 'Dilithium ammonium tris(catena-phosphate(V))'
_chemical_formula_structural 'Li2 (N H4) (P O3)3'
_chemical_formula_sum 'H4 Li2 N1 O9 P3'
_exptl_crystal_density_diffrn 2.13
_publ_section_title
'Structure cristalline du polyphosphate de lithium-ammonium, Li2 N H4 (P O3)3'
loop_
_citation_id
_citation_journal_full
_citation_year
_citation_journal_volume
_citation_page_first
_citation_page_last
_citation_journal_id_ASTM
primary

;
Acta Crystallographica, Section B: Structural Crystallography and Crystal
Chemistry
; 1976 32 2440 2443 ACBCAR
loop_
_publ_author_name
'Averbuch-Pouchot, M.T.'
'Durif, A.'
'Guitel, J.C.'
_cell_length_a 12.199(5)
_cell_length_b 13.047(5)
_cell_length_c 10.537(5)
_cell_angle_alpha 90.
_cell_angle_beta 90.
_cell_angle_gamma 90.
_cell_volume 1677.07
_cell_formula_units_Z 8
_symmetry_space_group_name_H-M 'P b c a'
_symmetry_Int_Tables_number 61
_refine_ls_R_factor_all 0.043
loop_
_symmetry_equiv_pos_site_id
_symmetry_equiv_pos_as_xyz
1 'x+1/2, y, -z+1/2'
2 'x, -y+1/2, z+1/2'
3 '-x+1/2, y+1/2, z'
4 '-x, -y, -z'
5 '-x+1/2, -y, z+1/2'
6 '-x, y+1/2, -z+1/2'
7 'x+1/2, -y+1/2, -z'
8 'x, y, z'
loop_
_atom_type_symbol
_atom_type_oxidation_number
P5+ 5
O2- -2
N3- -3
Li1+ 1
H1+ 1
loop_
_atom_site_label
_atom_site_type_symbol
_atom_site_symmetry_multiplicity
_atom_site_Wyckoff_symbol
_atom_site_fract_x
_atom_site_fract_y
_atom_site_fract_z
_atom_site_B_iso_or_equiv
_atom_site_occupancy
_atom_site_attached_hydrogens
P1 P5+ 8 c 0.91165(5) 0.19455(5) 0.18759(6) . 1. 0
P2 P5+ 8 c 0.04817(5) 0.01481(5) 0.24518(7) . 1. 0
P3 P5+ 8 c 0.09275(5) 0.34094(5) 0.20287(6) . 1. 0
O1 O2- 8 c 0.3266(2) 0.1845(2) 0.4120(2) . 1. 0
O2 O2- 8 c 0.3780(2) 0.1981(2) 0.1778(2) . 1. 0
O3 O2- 8 c 0.5009(2) 0.1072(1) 0.3362(2) . 1. 0
O4 O2- 8 c 0.4798(2) 0.2948(1) 0.3487(2) . 1. 0
O5 O2- 8 c 0.3899(2) 0.4493(1) 0.1563(2) . 1. 0
O6 O2- 8 c 0.1054(2) 0.0546(2) 0.3586(2) . 1. 0
O7 O2- 8 c 0.0621(1) 0.4597(1) 0.2096(2) . 1. 0
O8 O2- 8 c 0.1190(2) 0.3027(2) 0.3311(2) . 1. 0
O9 O2- 8 c 0.1749(2) 0.3292(1) 0.1007(2) . 1. 0
N1 N3- 8 c 0.2576(2) 0.4279(2) 0.5055(2) . 1. 0
Li1 Li1+ 8 c 0.1649(4) 0.1800(4) 0.4157(5) . 1. 0
Li2 Li1+ 8 c 0.3346(4) 0.3241(4) 0.0945(5) . 1. 0
loop_
_atom_site_aniso_label
_atom_site_aniso_type_symbol
_atom_site_aniso_beta_11
_atom_site_aniso_beta_22
_atom_site_aniso_beta_33
_atom_site_aniso_beta_12
_atom_site_aniso_beta_13
_atom_site_aniso_beta_23
P1 P5+ 0.00101(3) 0.00098(3) 0.00149(4) 0.00000(3) -.00003(3) -.00003(3)
P2 P5+ 0.00114(3) 0.00075(2) 0.00248(5) 0.00006(3) 0.00006(4) -.00002(3)
P3 P5+ 0.00102(3) 0.00088(3) 0.00161(4) 0.00016(2) 0.00000(3) -.00002(3)
O1 O2- 0.00153(11) 0.00281(11) 0.00233(15) -.00046(9) 0.00054(10) 0.00017(11)
O2 O2- 0.00234(11) 0.00174(10) 0.00184(14) 0.00022(9) -.00053(11) 0.00011(10)
O3 O2- 0.00246(12) 0.00124(9) 0.00276(16) 0.00067(8) -.00084(11) -.00032(10)
O4 O2- 0.00267(13) 0.00135(9) 0.00528(21) -.00063(9) -.00175(13) -.00024(12)
O5 O2- 0.00297(14) 0.00199(10) 0.00441(19) -.00033(10) -.00153(14) -.00003(12)
O6 O2- 0.00143(10) 0.00092(8) 0.00402(17) 0.00010(7) 0.00060(11) 0.00002(10)
O7 O2- 0.00267(12) 0.00183(10) 0.00208(15) 0.00011(9) -.00061(11) 0.00033(10)
O8 O2- 0.00139(11) 0.00257(11) 0.00241(16) 0.00032(9) 0.00038(10) -.00001(11)
O9 O2- 0.00166(10) 0.00117(8) 0.00268(14) -.00020(8) 0.00053(10) -.00032(10)
N1 N3- 0.00313(16) 0.00208(13) 0.00408(21) 0.00013(12) 0.00033(17) -.00007(13)
Li1 Li1+ 0.0026(3) 0.00164(25) 0.00244(39) -.00016(21) -.00034(27) 0.00022(25)
Li2 Li1+ 0.00188(28) 0.00161(24) 0.00266(40) -.00001(20) -.0003(3) -.00003(25)
#End of TTdata_172-ICSD
