
#(C) 2019 by FIZ Karlsruhe - Leibniz Institute for Information Infrastructure.  All rights reserved.
data_287-ICSD
_database_code_ICSD 287
_audit_creation_date 1980-01-01
_audit_update_record 2012-08-01
_chemical_name_systematic 'Thallium aluminium oxide (2/22/34) - beta'
_chemical_formula_structural 'Tl2 O (Al2 O3)11'
_chemical_formula_sum 'Al22 O34 Tl2'
_chemical_name_structure_type HAl11O17
_exptl_crystal_density_diffrn 4.13
_publ_section_title 'Crystal structure of Tl-beta-alumina'
loop_
_citation_id
_citation_journal_full
_citation_year
_citation_journal_volume
_citation_page_first
_citation_page_last
_citation_journal_id_ASTM
primary 'Journal of Solid State Chemistry' 1976 17 61 70 JSSCBI
loop_
_publ_author_name
'Kodama, T.'
'Muto, G.'
_cell_length_a 5.598(1)
_cell_length_b 5.598(1)
_cell_length_c 22.930(10)
_cell_angle_alpha 90.
_cell_angle_beta 90.
_cell_angle_gamma 120.
_cell_volume 622.3
_cell_formula_units_Z 1
_symmetry_space_group_name_H-M 'P 63/m m c'
_symmetry_Int_Tables_number 194
_refine_ls_R_factor_all 0.063
loop_
_symmetry_equiv_pos_site_id
_symmetry_equiv_pos_as_xyz
1 'x, x-y, -z+1/2'
2 '-x+y, y, -z+1/2'
3 '-y, -x, -z+1/2'
4 '-x+y, -x, -z+1/2'
5 '-y, x-y, -z+1/2'
6 'x, y, -z+1/2'
7 '-x, -x+y, z+1/2'
8 'x-y, -y, z+1/2'
9 'y, x, z+1/2'
10 'x-y, x, z+1/2'
11 'y, -x+y, z+1/2'
12 '-x, -y, z+1/2'
13 '-x, -x+y, -z'
14 'x-y, -y, -z'
15 'y, x, -z'
16 'x-y, x, -z'
17 'y, -x+y, -z'
18 '-x, -y, -z'
19 'x, x-y, z'
20 '-x+y, y, z'
21 '-y, -x, z'
22 '-x+y, -x, z'
23 '-y, x-y, z'
24 'x, y, z'
loop_
_atom_type_symbol
_atom_type_oxidation_number
Tl1+ 1
Al3+ 3
O2- -2
loop_
_atom_site_label
_atom_site_type_symbol
_atom_site_symmetry_multiplicity
_atom_site_Wyckoff_symbol
_atom_site_fract_x
_atom_site_fract_y
_atom_site_fract_z
_atom_site_B_iso_or_equiv
_atom_site_occupancy
_atom_site_attached_hydrogens
Tl1 Tl1+ 2 c 0.3333 0.6667 0.25 . 0.27 0
Tl2 Tl1+ 6 h 0.6688(25) 0.3376(13) 0.25 . 0.22 0
Tl3 Tl1+ 2 b 0 0 0.25 . 0.036 0
Tl4 Tl1+ 6 h 0.9233(8) 0.8466(15) 0.25 . 0.0122 0
Al1 Al3+ 12 k 0.8323(4) 0.6646(7) 0.1042(1) . 1. 0
Al2 Al3+ 4 f 0.3333 0.6667 0.0244(3) . 1. 0
Al3 Al3+ 4 f 0.3333 0.6667 0.1750(3) . 1. 0
Al4 Al3+ 2 a 0 0 0 . 1. 0
O1 O2- 12 k 0.1581(20) 0.3162(40) 0.0489(3) . 1. 0
O2 O2- 12 k 0.5015(19) 0.003 0.1445(3) . 1. 0
O3 O2- 4 f 0.6667 0.3333 0.0547(6) . 1. 0
O4 O2- 4 e 0 0 0.1401(7) . 1. 0
O5 O2- 2 c 0.6667 0.3333 0.75 . 1. 0
loop_
_atom_site_aniso_label
_atom_site_aniso_type_symbol
_atom_site_aniso_beta_11
_atom_site_aniso_beta_22
_atom_site_aniso_beta_33
_atom_site_aniso_beta_12
_atom_site_aniso_beta_13
_atom_site_aniso_beta_23
Tl1 Tl1+ 0.456(44) 0.456(44) 0.0058(8) 0.278(22) 0 0
Tl2 Tl1+ 0.356(14) 0.356(14) 0.0028(3) 0.1778(72) 0 0
Tl3 Tl1+ 0.29(23) 0.29(23) 0.0015(44) 0.15(12) 0 0
Tl4 Tl1+ 0.471(47) 0.471(47) 0.0032(7) 0.236(24) 0 0
Al1 Al3+ 0.0181(38) 0.076(15) 0.0013(4) 0.0363(76) -.0005(13) -.0010(26)
Al2 Al3+ 0.058(21) 0.058(21) 0.0003(8) 0.029(11) 0 0
Al3 Al3+ 0.083(23) 0.083(23) -.0023(7) 0.042(11) 0 0
Al4 Al3+ 0.102(42) 0.102(42) 0.0017(14) 0.051(21) 0 0
O1 O2- 0.025(12) 0.100(46) 0.0011(8) 0.050(23) 0.0025(9) 0.0018(51)
O2 O2- 0.0092(77) 0.037(31) 0.0016(10) 0.018(15) 0.0015(23) 0.0029(46)
O3 O2- 0.060(48) 0.067(48) 0.0001(16) 0.030(24) 0 0
O4 O2- 0.114(57) 0.114(57) -.0037(18) 0.058(29) 0 0
O5 O2- 0.39(15) 0.39(15) -.0083(24) 0.194(77) 0 0
#End of TTdata_287-ICSD
