
#(C) 2019 by FIZ Karlsruhe - Leibniz Institute for Information Infrastructure.  All rights reserved.
data_137-ICSD
_database_code_ICSD 137
_audit_creation_date 1980-01-01
_audit_update_record 2011-08-01
_chemical_name_systematic 'Gallium molybdenum (40.39/7.4)'
_chemical_formula_structural 'Ga40.392 Mo7.396'
_chemical_formula_sum 'Ga40.392 Mo7.396'
_exptl_crystal_density_diffrn 6.84
_publ_section_title
'Mo8 Ga41 another example of ten-coordination of the transition element'
loop_
_citation_id
_citation_journal_full
_citation_year
_citation_journal_volume
_citation_page_first
_citation_page_last
_citation_journal_id_ASTM
primary

;
Acta Crystallographica, Section B: Structural Crystallography and Crystal
Chemistry
; 1975 31 117 120 ACBCAR
loop_
_publ_author_name
'Yvon, K.'
_cell_length_a 14.04(1)
_cell_length_b 14.04(1)
_cell_length_c 15.05(1)
_cell_angle_alpha 90.
_cell_angle_beta 90.
_cell_angle_gamma 120.
_cell_volume 2569.22
_cell_formula_units_Z 3
_symmetry_space_group_name_H-M 'R -3 H'
_symmetry_Int_Tables_number 148
_refine_ls_R_factor_all 0.09
loop_
_symmetry_equiv_pos_site_id
_symmetry_equiv_pos_as_xyz
1 'x-y, x, -z'
2 'y, -x+y, -z'
3 '-x, -y, -z'
4 '-x+y, -x, z'
5 '-y, x-y, z'
6 'x, y, z'
7 'x-y+2/3, x+1/3, -z+1/3'
8 'y+2/3, -x+y+1/3, -z+1/3'
9 '-x+2/3, -y+1/3, -z+1/3'
10 '-x+y+2/3, -x+1/3, z+1/3'
11 '-y+2/3, x-y+1/3, z+1/3'
12 'x+2/3, y+1/3, z+1/3'
13 'x-y+1/3, x+2/3, -z+2/3'
14 'y+1/3, -x+y+2/3, -z+2/3'
15 '-x+1/3, -y+2/3, -z+2/3'
16 '-x+y+1/3, -x+2/3, z+2/3'
17 '-y+1/3, x-y+2/3, z+2/3'
18 'x+1/3, y+2/3, z+2/3'
loop_
_atom_type_symbol
_atom_type_oxidation_number
Ga0+ 0
Mo0+ 0
loop_
_atom_site_label
_atom_site_type_symbol
_atom_site_symmetry_multiplicity
_atom_site_Wyckoff_symbol
_atom_site_fract_x
_atom_site_fract_y
_atom_site_fract_z
_atom_site_B_iso_or_equiv
_atom_site_occupancy
_atom_site_attached_hydrogens
Ga1 Ga0+ 3 a 0 0 0 1.1(1) 0.990(1) 0
Ga2 Ga0+ 3 b 0 0 0.5 2.4(1) 0.990(1) 0
Ga3 Ga0+ 9 d 0.5 0 0.5 1.2(1) 1. 0
Ga4 Ga0+ 18 f 0.1071(2) 0.2378(2) 0.0039(3) 1.1(1) 0.971(1) 0
Ga5 Ga0+ 18 f 0.1148(3) 0.1254(3) 0.1636(3) 1.2(1) 0.971(1) 0
Ga6 Ga0+ 18 f 0.3068(2) 0.3182(2) 0.2673(3) 1.3(1) 0.990(1) 0
Ga7 Ga0+ 18 f 0.0023(2) 0.1859(2) 0.2852(3) 1.1(1) 0.990(1) 0
Ga8 Ga0+ 18 f 0.1667(3) 0.1507(3) 0.3904(3) 1.4(1) 0.990(1) 0
Ga9 Ga0+ 18 f 0.1829(3) 0.3136(3) 0.4934(3) 1.4(1) 0.990(1) 0
Mo1 Mo0+ 6 c 0 0 0.3018(2) 0.7(1) 0.932(1) 0
Mo2 Mo0+ 18 f 0.2903(2) 0.3057(2) 0.0975(3) 0.4(1) 0.922(1) 0
#End of TTdata_137-ICSD
