
#(C) 2019 by FIZ Karlsruhe - Leibniz Institute for Information Infrastructure.  All rights reserved.
data_120-ICSD
_database_code_ICSD 120
_audit_creation_date 1980-01-01
_audit_update_record 2012-02-01
_chemical_name_systematic 'Ammonium diamminecopper chloride (0.33/0.33/1)'
_chemical_formula_structural '((N H4) (Cu (N H3)2) Cl3)0.3333'
_chemical_formula_sum 'H3.333 Cl0.9999 Cu0.3333 N0.9999'
_chemical_name_structure_type Cu(NH3)2Cl2
_exptl_crystal_density_diffrn 2.07
_publ_section_title 'Ammonium diamminecopper(II) chloride, Cl3 Cu H10 N3'
loop_
_citation_id
_citation_journal_full
_citation_year
_citation_journal_volume
_citation_page_first
_citation_page_last
_citation_journal_id_ASTM
primary 'Crystal Structure Communications' 1976 5 63 65 CSCMCS
loop_
_publ_author_name
'Clayton, W.'
'Meyers, E.'
_cell_length_a 3.901(2)
_cell_length_b 3.901(2)
_cell_length_c 3.901(2)
_cell_angle_alpha 90.
_cell_angle_beta 90.
_cell_angle_gamma 90.
_cell_volume 59.36
_cell_formula_units_Z 1
_symmetry_space_group_name_H-M 'P m -3'
_symmetry_Int_Tables_number 200
_refine_ls_R_factor_all 0.037
loop_
_symmetry_equiv_pos_site_id
_symmetry_equiv_pos_as_xyz
1 '-z, x, y'
2 'z, x, -y'
3 'z, -x, y'
4 '-z, -x, -y'
5 'y, -z, x'
6 '-y, z, x'
7 'y, z, -x'
8 '-y, -z, -x'
9 'x, y, -z'
10 'x, -y, z'
11 '-x, y, z'
12 '-x, -y, -z'
13 'z, -x, -y'
14 '-z, -x, y'
15 '-z, x, -y'
16 'z, x, y'
17 '-y, z, -x'
18 'y, -z, -x'
19 '-y, -z, x'
20 'y, z, x'
21 '-x, -y, z'
22 '-x, y, -z'
23 'x, -y, -z'
24 'x, y, z'
loop_
_atom_type_symbol
_atom_type_oxidation_number
Cl1- -1
Cu2+ 2
N3- -3
H1+ 1
loop_
_atom_site_label
_atom_site_type_symbol
_atom_site_symmetry_multiplicity
_atom_site_Wyckoff_symbol
_atom_site_fract_x
_atom_site_fract_y
_atom_site_fract_z
_atom_site_B_iso_or_equiv
_atom_site_occupancy
_atom_site_attached_hydrogens
Cl1 Cl1- 1 a 0 0 0 . 1. 0
Cu1 Cu2+ 3 c 0 0.5 0.5 . 0.111 0
N1 N3- 1 b 0.5 0.5 0.5 . 1. 0
H1 H1+ 8 i 0.366(7) 0.366(7) 0.366(7) . 0.4167 0
#End of TTdata_120-ICSD
