
#(C) 2019 by FIZ Karlsruhe - Leibniz Institute for Information Infrastructure.  All rights reserved.
data_102-ICSD
_database_code_ICSD 102
_audit_creation_date 1980-01-01
_audit_update_record 2009-08-01
_chemical_name_systematic 'Cesium tris(thiocyanato)mercurate'
_chemical_formula_structural 'Cs (Hg (S C N)3)'
_chemical_formula_sum 'C3 Cs1 Hg1 N3 S3'
_exptl_crystal_density_diffrn 3.42
_publ_section_title
'Kristallstrukturen der Trithiocyanomercurate Rb Hg(S C N)3 und Cs Hg (S C N)3'
loop_
_citation_id
_citation_journal_full
_citation_year
_citation_journal_volume
_citation_page_first
_citation_page_last
_citation_journal_id_ASTM
primary 'Zeitschrift fuer Anorganische und Allgemeine Chemie (1950) (DE)' 1976
421 24 36 ZAACAB
loop_
_publ_author_name
'Thiele, G.'
'Messer, D.'
_cell_length_a 9.5431(22)
_cell_length_b 10.8986(20)
_cell_length_c 19.9649(35)
_cell_angle_alpha 90.
_cell_angle_beta 108.39(4)
_cell_angle_gamma 90.
_cell_volume 1970.43
_cell_formula_units_Z 8
_symmetry_space_group_name_H-M 'P 1 21/c 1'
_symmetry_Int_Tables_number 14
_refine_ls_R_factor_all 0.056
loop_
_symmetry_equiv_pos_site_id
_symmetry_equiv_pos_as_xyz
1 'x, -y+1/2, z+1/2'
2 '-x, -y, -z'
3 '-x, y+1/2, -z+1/2'
4 'x, y, z'
loop_
_atom_type_symbol
_atom_type_oxidation_number
Hg2+ 2
Cs1+ 1
S2- -2
C4+ 4
N3- -3
loop_
_atom_site_label
_atom_site_type_symbol
_atom_site_symmetry_multiplicity
_atom_site_Wyckoff_symbol
_atom_site_fract_x
_atom_site_fract_y
_atom_site_fract_z
_atom_site_B_iso_or_equiv
_atom_site_occupancy
_atom_site_attached_hydrogens
Hg1 Hg2+ 4 e 0.97842(8) 0.23488(8) 0.08995(4) . 1. 0
Hg2 Hg2+ 4 e 0.41552(8) 0.26933(8) 0.13363(4) . 1. 0
Cs1 Cs1+ 4 e 0.47081(13) 0.22029(13) 0.42683(7) . 1. 0
Cs2 Cs1+ 4 e 0.91546(15) 0.25923(13) 0.33038(7) . 1. 0
S1 S2- 4 e 0.18714(47) 0.09260(46) 0.16015(24) . 1. 0
S2 S2- 4 e 0.20215(46) 0.34601(40) 0.02781(25) . 1. 0
S3 S2- 4 e 0.52309(49) 0.08916(43) 0.09185(23) . 1. 0
S4 S2- 4 e 0.49893(69) 0.37244(51) 0.24705(28) . 1. 0
S5 S2- 4 e 0.82307(50) 0.37547(46) 0.48575(23) . 1. 0
S6 S2- 4 e 0.93535(56) 0.41777(52) 0.15156(29) . 1. 0
C1 C4+ 4 e 0.1967(18) 0.1465(21) 0.2383(8) . 1. 0
C2 C4+ 4 e 0.1928(17) 0.4978(13) 0.0464(8) . 1. 0
C3 C4+ 4 e 0.6944(19) 0.1087(18) 0.1465(9) . 1. 0
C4 C4+ 4 e 0.5544(20) 0.0171(17) 0.2805(10) . 1. 0
C5 C4+ 4 e 0.1866(20) 0.4876(14) 0.4765(9) . 1. 0
C6 C4+ 4 e 0.7518(25) 0.4238(20) 0.1116(10) . 1. 0
N1 N3- 4 e 0.1999(21) 0.1855(24) 0.2936(8) . 1. 0
N2 N3- 4 e 0.8242(20) 0.0954(17) 0.4477(9) . 1. 0
N3 N3- 4 e 0.8185(19) 0.1136(20) 0.1835(10) . 1. 0
N4 N3- 4 e 0.5843(22) 0.1140(23) 0.2957(10) . 1. 0
N5 N3- 4 e 0.1994(22) 0.3943(16) 0.4507(12) . 1. 0
N6 N3- 4 e 0.6207(22) 0.4227(24) 0.0877(11) . 1. 0
loop_
_atom_site_aniso_label
_atom_site_aniso_type_symbol
_atom_site_aniso_beta_11
_atom_site_aniso_beta_22
_atom_site_aniso_beta_33
_atom_site_aniso_beta_12
_atom_site_aniso_beta_13
_atom_site_aniso_beta_23
Hg1 Hg2+ 0.00900(9) 0.00743(7) 0.00261(2) 0.00061(6) 0.00058(3) -.00089(3)
Hg2 Hg2+ 0.00948(9) 0.00732(7) 0.00266(2) 0.00072(6) 0.00173(4) -.00086(3)
Cs1 Cs1+ 0.00856(13) 0.00967(13) 0.00226(3) -.00121(10) 0.00235(5) -.00092(5)
Cs2 Cs1+ 0.01130(15) 0.00908(13) 0.00250(4) -.00019(11) 0.00223(6) -.00074(5)
S1 S2- 0.00725(48) 0.00709(42) 0.00215(12) 0.00117(38) 0.00128(20) 0.00008(18)
S2 S2- 0.00717(45) 0.00483(35) 0.00237(13) 0.00085(31) 0.00149(20) -.00003(16)
S3 S2- 0.00806(48) 0.00586(38) 0.00214(12) 0.00082(34) 0.00096(20) -.00084(17)
S4 S2- 0.01532(75) 0.00693(48) 0.00199(13) -.00059(47) 0.00092(24) -.00005(20)
S5 S2- 0.00898(51) 0.00683(41) 0.00160(11) 0.00079(36) 0.00086(19) 0.00011(17)
S6 S2- 0.00933(58) 0.00778(48) 0.00283(15) -.00047(40) 0.00133(24) -.00103(22)
C1 C4+ 0.0080(19) 0.0123(22) 0.00108(36) 0.0032(16) 0.00027(65) 0.00003(81)
C2 C4+ 0.0091(18) 0.0023(11) 0.00170(38) -0.0009(10) 0.00044(66) 0.00022(52)
C3 C4+ 0.0085(21) 0.0072(17) 0.00217(49) 0.0015(15) 0.00135(82) 0.00085(76)
C4 C4+ 0.0087(23) 0.0062(18) 0.00221(49) -0.0008(15) 0.00007(81) 0.00112(74)
C5 C4+ 0.0088(20) 0.0035(13) 0.00226(46) 0.0002(12) 0.00139(77) 0.00010(62)
C6 C4+ 0.0137(30) 0.0080(20) 0.00222(61) -0.0003(19) 0.0026(10) -.00043(80)
N1 N3- 0.0131(23) 0.0201(29) 0.00152(39) -0.0020(22) 0.00040(75) -.00142(90)
N2 N3- 0.0142(24) 0.0067(18) 0.00262(51) -0.0005(15) 0.00036(86) -.00059(74)
N3 N3- 0.0099(21) 0.0118(21) 0.00279(50) 0.0018(16) 0.00025(81) -.00226(85)
N4 N3- 0.0124(26) 0.0134(25) 0.00334(68) -0.0021(20) 0.0021(11) 0.0017(10)
N5 N3- 0.0137(26) 0.0059(16) 0.00522(80) -0.0030(16) 0.0034(12) -.00092(96)
N6 N3- 0.0103(24) 0.0170(27) 0.00356(71) 0.0011(19) 0.0023(11) 0.0006(11)
#End of TTdata_102-ICSD
