
#(C) 2019 by FIZ Karlsruhe - Leibniz Institute for Information Infrastructure.  All rights reserved.
data_106-ICSD
_database_code_ICSD 106
_audit_creation_date 1980-01-01
_audit_update_record 2011-08-01
_chemical_name_systematic 'Tellurium bromide (2/1)'
_chemical_formula_structural 'Te2 Br'
_chemical_formula_sum 'Br1 Te2'
_chemical_name_structure_type Te2Br
_exptl_crystal_density_diffrn 5.8
_publ_section_title 'Zur Kenntnis der Subhalogenide des Tellurs'
loop_
_citation_id
_citation_journal_full
_citation_year
_citation_journal_volume
_citation_page_first
_citation_page_last
_citation_journal_id_ASTM
primary 'Zeitschrift fuer Anorganische und Allgemeine Chemie (1950) (DE)' 1976
422 17 38 ZAACAB
loop_
_publ_author_name
'Kniep, R.'
'Mootz, D.'
'Rabenau, A.'
_cell_length_a 14.921(12)
_cell_length_b 12.843(6)
_cell_length_c 4.005(3)
_cell_angle_alpha 90.
_cell_angle_beta 90.
_cell_angle_gamma 90.
_cell_volume 767.48
_cell_formula_units_Z 8
_symmetry_space_group_name_H-M 'P n a m'
_symmetry_Int_Tables_number 62
_refine_ls_R_factor_all 0.095
loop_
_symmetry_equiv_pos_site_id
_symmetry_equiv_pos_as_xyz
1 'x+1/2, -y+1/2, z'
2 'x, y, -z+1/2'
3 '-x+1/2, y+1/2, z+1/2'
4 '-x, -y, -z'
5 '-x+1/2, y+1/2, -z'
6 '-x, -y, z+1/2'
7 'x+1/2, -y+1/2, -z+1/2'
8 'x, y, z'
loop_
_atom_type_symbol
_atom_type_oxidation_number
Te0+ 0.5
Br1- -1
loop_
_atom_site_label
_atom_site_type_symbol
_atom_site_symmetry_multiplicity
_atom_site_Wyckoff_symbol
_atom_site_fract_x
_atom_site_fract_y
_atom_site_fract_z
_atom_site_B_iso_or_equiv
_atom_site_occupancy
_atom_site_attached_hydrogens
Te1 Te0+ 4 c 0.07484(29) 0.23524(32) 0.25 . 1. 0
Te2 Te0+ 4 c 0.08890(28) 0.07923(29) 0.75 . 1. 0
Te3 Te0+ 4 c 0.28234(26) 0.04396(27) 0.75 . 1. 0
Te4 Te0+ 4 c 0.3212(3) 0.19042(28) 0.25 . 1. 0
Br1 Br1- 4 c 0.05332(46) 0.39704(45) 0.75 . 1. 0
Br2 Br1- 4 c 0.34460(48) 0.36382(45) 0.75 . 1. 0
loop_
_atom_site_aniso_label
_atom_site_aniso_type_symbol
_atom_site_aniso_U_11
_atom_site_aniso_U_22
_atom_site_aniso_U_33
_atom_site_aniso_U_12
_atom_site_aniso_U_13
_atom_site_aniso_U_23
Te1 Te0+ 0.0369 0.0178 0.013 0.0028 0 0
Te2 Te0+ 0.0396 0.012 0.011 -.0022 0 0
Te3 Te0+ 0.0397 0.0101 0.0091 0.0008 0 0
Te4 Te0+ 0.0307 0.0151 0.0124 -.0032 0 0
Br1 Br1- 0.0663 0.0152 0.0183 0.0016 0 0
Br2 Br1- 0.0602 0.0182 0.0153 -.0022 0 0
#End of TTdata_106-ICSD
