
#(C) 2019 by FIZ Karlsruhe - Leibniz Institute for Information Infrastructure.  All rights reserved.
data_124-ICSD
_database_code_ICSD 124
_audit_creation_date 1980-01-01
_audit_update_record 2012-08-01
_chemical_name_systematic 'Copper(I) thiocyanate'
_chemical_formula_structural 'Cu (S C N)'
_chemical_formula_sum 'C1 Cu1 N1 S1'
_chemical_name_structure_type CuSCN
_exptl_crystal_density_diffrn 3.05
_publ_section_title

;
Crystal structure of copper(I) thiocyanate and its relation to the crystal
structure of copper(II) diammine dithiocyanate complex
;
loop_
_citation_id
_citation_journal_full
_citation_year
_citation_journal_volume
_citation_page_first
_citation_page_last
_citation_journal_id_ASTM
primary 'Inorganica Chimica Acta' 1976 17 161 165 ICHAA3
loop_
_publ_author_name
'Kabesova, M.'
'Dunaj Jurco, M.'
'Serator, M.'
'Gazo, J.'
_cell_length_a 10.994(9)
_cell_length_b 7.224(3)
_cell_length_c 6.662(2)
_cell_angle_alpha 90.
_cell_angle_beta 90.
_cell_angle_gamma 90.
_cell_volume 529.1
_cell_formula_units_Z 8
_symmetry_space_group_name_H-M 'P b c a'
_symmetry_Int_Tables_number 61
_refine_ls_R_factor_all 0.052
loop_
_symmetry_equiv_pos_site_id
_symmetry_equiv_pos_as_xyz
1 'x+1/2, y, -z+1/2'
2 'x, -y+1/2, z+1/2'
3 '-x+1/2, y+1/2, z'
4 '-x, -y, -z'
5 '-x+1/2, -y, z+1/2'
6 '-x, y+1/2, -z+1/2'
7 'x+1/2, -y+1/2, -z'
8 'x, y, z'
loop_
_atom_type_symbol
_atom_type_oxidation_number
Cu1+ 1
S2- -2
N3- -3
C4+ 4
loop_
_atom_site_label
_atom_site_type_symbol
_atom_site_symmetry_multiplicity
_atom_site_Wyckoff_symbol
_atom_site_fract_x
_atom_site_fract_y
_atom_site_fract_z
_atom_site_B_iso_or_equiv
_atom_site_occupancy
_atom_site_attached_hydrogens
Cu1 Cu1+ 8 c 0.18428(8) 0.15640(13) 0.13598(15) . 1. 0
S1 S2- 8 c 0.78357(15) 0.38390(23) 0.17407(26) . 1. 0
N1 N3- 8 c 0.01656(50) 0.23210(97) 0.1176(10) . 1. 0
C1 C4+ 8 c 0.92453(61) 0.29429(93) 0.1392(11) . 1. 0
loop_
_atom_site_aniso_label
_atom_site_aniso_type_symbol
_atom_site_aniso_B_11
_atom_site_aniso_B_22
_atom_site_aniso_B_33
_atom_site_aniso_B_12
_atom_site_aniso_B_13
_atom_site_aniso_B_23
Cu1 Cu1+ 1.11 1.97 2.29 0.16 0 -.06
S1 S2- 1.02 1.06 1.21 0.14 0.1 -.07
N1 N3- 1.01 2.9 2.05 0.33 0.07 -.13
C1 C4+ 1.42 1.54 1.36 0.08 -.16 -.01
#End of TTdata_124-ICSD
