
#(C) 2019 by FIZ Karlsruhe - Leibniz Institute for Information Infrastructure.  All rights reserved.
data_197-ICSD
_database_code_ICSD 197
_audit_creation_date 1980-01-01
_audit_update_record 2018-08-01
_chemical_name_systematic 'Vanadium oxide (7/13)'
_chemical_formula_structural 'V7 O13'
_chemical_formula_sum 'O13 V7'
_exptl_crystal_density_diffrn 4.72
_publ_section_title 'Crystal structures of VnO2n-1(2<=n<=7)'
loop_
_citation_id
_citation_journal_full
_citation_year
_citation_journal_volume
_citation_page_first
_citation_page_last
_citation_journal_id_ASTM
primary 'Journal of Solid State Chemistry' 1976 17 407 424 JSSCBI
loop_
_publ_author_name
'Horiuchi, Hiroyuki'
'Morimoto, Nobuo'
'Tokonami, Masayasu'
_cell_length_a 5.439
_cell_length_b 7.005
_cell_length_c 35.516
_cell_angle_alpha 40.9
_cell_angle_beta 72.6
_cell_angle_gamma 109.
_cell_volume 397.03
_cell_formula_units_Z 2
_symmetry_space_group_name_H-M 'P -1'
_symmetry_Int_Tables_number 2
_refine_ls_R_factor_all 0.098
loop_
_symmetry_equiv_pos_site_id
_symmetry_equiv_pos_as_xyz
1 '-x, -y, -z'
2 'x, y, z'
loop_
_atom_type_symbol
_atom_type_oxidation_number
V0+ 0
O0+ 0
loop_
_atom_site_label
_atom_site_type_symbol
_atom_site_symmetry_multiplicity
_atom_site_Wyckoff_symbol
_atom_site_fract_x
_atom_site_fract_y
_atom_site_fract_z
_atom_site_B_iso_or_equiv
_atom_site_occupancy
_atom_site_attached_hydrogens
V1 V0+ 2 i -.00252(83) 0.45066(94) 0.05220(18) 0.33(3) 1. 0
V2 V0+ 2 i -.02908(83) -.07677(95) 0.05763(19) 0.35(3) 1. 0
V3 V0+ 2 i -.03877(83) 0.45346(94) 0.20618(18) 0.32(3) 1. 0
V4 V0+ 2 i -.04913(84) -.06302(95) 0.20821(19) 0.36(3) 1. 0
V5 V0+ 2 i -.03579(85) 0.45384(96) 0.35639(19) 0.41(3) 1. 0
V6 V0+ 2 i -.02066(84) -.02454(96) 0.35202(19) 0.38(3) 1. 0
V7 V0+ 1 g 0 0.5 0.5 0.43(3) 1. 0
V8 V0+ 1 b 0 0 0.5 0.36(3) 1. 0
O1 O0+ 2 i 0.6889(34) 0.4124(38) 0.02784(75) 0.46(10) 1. 0
O2 O0+ 2 i 0.3196(34) 0.5594(39) 0.05591(75) 0.47(10) 1. 0
O3 O0+ 2 i 0.6831(33) 0.4646(38) 0.09284(74) 0.43(10) 1. 0
O4 O0+ 2 i 0.3666(34) 0.6095(39) 0.12549(76) 0.52(11) 1. 0
O5 O0+ 2 i 0.3666(34) 0.4085(40) 0.18020(78) 0.63(11) 1. 0
O6 O0+ 2 i 0.3121(34) 0.5912(38) 0.20865(75) 0.45(10) 1. 0
O7 O0+ 2 i 0.6659(34) 0.4464(39) 0.25189(75) 0.48(10) 1. 0
O8 O0+ 2 i 0.3208(34) 0.5357(39) 0.29412(76) 0.49(10) 1. 0
O9 O0+ 2 i 0.7016(35) 0.4175(39) 0.33115(77) 0.62(11) 1. 0
O10 O0+ 2 i 0.3066(35) 0.5915(40) 0.36205(78) 0.66(11) 1. 0
O11 O0+ 2 i 0.6813(35) 0.4656(40) 0.40000(78) 0.64(11) 1. 0
O12 O0+ 2 i 0.3143(34) 0.5279(90) 0.44830(76) 0.54(11) 1. 0
O13 O0+ 2 i 0.6950(34) 0.4092(39) 0.48466(76) 0.52(11) 1. 0
#End of TTdata_197-ICSD
