
#(C) 2019 by FIZ Karlsruhe - Leibniz Institute for Information Infrastructure.  All rights reserved.
data_283-ICSD
_database_code_ICSD 283
_audit_creation_date 1980-01-01
_audit_update_record 2009-08-01
_chemical_name_systematic 'Iron titanium oxide (0.15/0.89/2)'
_chemical_formula_structural '(Fe0.1482 Ti0.8882) O2'
_chemical_formula_sum 'Fe0.1482 O2 Ti0.8882'
_exptl_crystal_density_diffrn 4.32
_publ_section_title

;
High-temperature rutile-derived crystallographic shear structures. I. (020)R C
S structures
;
loop_
_citation_id
_citation_journal_full
_citation_year
_citation_journal_volume
_citation_page_first
_citation_page_last
_citation_journal_id_ASTM
primary 'Journal of Solid State Chemistry' 1976 16 331 347 JSSCBI
loop_
_publ_author_name
'Bursill, L.'
'Grey, I.E.'
'Lloyd, D.J.'
_cell_length_a 4.618(5)
_cell_length_b 51.36(5)
_cell_length_c 2.953(3)
_cell_angle_alpha 90.
_cell_angle_beta 90.
_cell_angle_gamma 90.
_cell_volume 700.39
_cell_formula_units_Z 22
_symmetry_space_group_name_H-M 'A 21 a m'
_symmetry_Int_Tables_number 36
_refine_ls_R_factor_all 0.09
loop_
_symmetry_equiv_pos_site_id
_symmetry_equiv_pos_as_xyz
1 'x+1/2, -y, z'
2 'x+1/2, -y, -z'
3 'x, y, -z'
4 'x, y, z'
5 'x+1/2, -y+1/2, z+1/2'
6 'x+1/2, -y+1/2, -z+1/2'
7 'x, y+1/2, -z+1/2'
8 'x, y+1/2, z+1/2'
loop_
_atom_type_symbol
_atom_type_oxidation_number
Fe3+ 3
Ti4+ 4
O2- -2
loop_
_atom_site_label
_atom_site_type_symbol
_atom_site_symmetry_multiplicity
_atom_site_Wyckoff_symbol
_atom_site_fract_x
_atom_site_fract_y
_atom_site_fract_z
_atom_site_B_iso_or_equiv
_atom_site_occupancy
_atom_site_attached_hydrogens
Fe1 Fe3+ 4 a 0 0.0053(2) 0 0.14 0.1 0
Fe2 Fe3+ 4 a -.0302(20) 0.0942(2) 0 0.54 0.143 0
Fe3 Fe3+ 4 a 0.0011(23) 0.1832(2) 0 -.08 0.143 0
Fe4 Fe3+ 4 a -.0022(43) 0.2726(3) 0 1.04 0.143 0
Fe5 Fe3+ 4 a 0.0135(19) 0.3618(2) 0 0.38 0.143 0
Fe6 Fe3+ 4 a -.0433(19) 0.4511(2) 0 0.64 0.143 0
Ti1 Ti4+ 4 a 0 0.0053(2) 0 0.14 0.6 0
Ti2 Ti4+ 4 a -.0302(20) 0.0942(2) 0 0.54 0.857 0
Ti3 Ti4+ 4 a 0.0011(23) 0.1832(2) 0 -.08 0.857 0
Ti4 Ti4+ 4 a -.0022(43) 0.2726(3) 0 1.04 0.857 0
Ti5 Ti4+ 4 a 0.0135(19) 0.361(2) 0 0.38 0.857 0
Ti6 Ti4+ 4 a -.0433(19) 0.4511(2) 0 0.64 0.857 0
O1 O2- 4 a 0.2809(70) 0.0316(6) 0 0.7 1. 0
O2 O2- 4 a 0.1923(84) 0.5773(7) 0 0.42 1. 0
O3 O2- 4 a 0.2906(86) 0.1195(6) 0 0.06 1. 0
O4 O2- 4 a 0.1923(46) 0.6649(43) 0 -.17 1. 0
O5 O2- 4 a 0.2882(81) 0.2103(6) 0 0.44 1. 0
O6 O2- 4 a 0.187(14) 0.7565(12) 0 1. 1. 0
O7 O2- 4 a 0.299(11) 0.2996(11) 0 -.07 1. 0
O8 O2- 4 a 0.2381(88) 0.8494(7) 0 1.56 1. 0
O9 O2- 4 a 0.310(11) 0.3883(8) 0 0.2 1. 0
O10 O2- 4 a 0.2221(70) 0.9353(6) 0 0.51 1. 0
O11 O2- 4 a 0.2760(73) 0.4809(6) 0 1.4 1. 0
#End of TTdata_283-ICSD
