
#(C) 2019 by FIZ Karlsruhe - Leibniz Institute for Information Infrastructure.  All rights reserved.
data_158-ICSD
_database_code_ICSD 158
_audit_creation_date 1980-01-01
_audit_update_record 2011-08-01
_chemical_name_systematic 'Tetrapotassium stannate'
_chemical_formula_structural 'K4 (Sn O4)'
_chemical_formula_sum 'K4 O4 Sn1'
_chemical_name_structure_type Na4SiO4
_exptl_crystal_density_diffrn 3.15
_publ_section_title
'Structure cristalline de l'orthostannate de potassium K4 Sn O4'
loop_
_citation_id
_citation_journal_full
_citation_year
_citation_journal_volume
_citation_page_first
_citation_page_last
_citation_journal_id_ASTM
primary

;
Acta Crystallographica, Section B: Structural Crystallography and Crystal
Chemistry
; 1975 31 511 514 ACBCAR
loop_
_publ_author_name
'Marchand, R.'
'Piffard, Y.'
'Tournoux, M.'
_cell_length_a 6.48(2)
_cell_length_b 6.51(2)
_cell_length_c 9.70(2)
_cell_angle_alpha 71.82(20)
_cell_angle_beta 99.89
_cell_angle_gamma 113.13(20)
_cell_volume 356.95
_cell_formula_units_Z 2
_symmetry_space_group_name_H-M 'P -1'
_symmetry_Int_Tables_number 2
_refine_ls_R_factor_all 0.029
loop_
_symmetry_equiv_pos_site_id
_symmetry_equiv_pos_as_xyz
1 '-x, -y, -z'
2 'x, y, z'
loop_
_atom_type_symbol
_atom_type_oxidation_number
Sn4+ 4
K1+ 1
O2- -2
loop_
_atom_site_label
_atom_site_type_symbol
_atom_site_symmetry_multiplicity
_atom_site_Wyckoff_symbol
_atom_site_fract_x
_atom_site_fract_y
_atom_site_fract_z
_atom_site_B_iso_or_equiv
_atom_site_occupancy
_atom_site_attached_hydrogens
Sn1 Sn4+ 2 i 0.22340(3) 0.15443(9) 0.24692(2) . 1. 0
K1 K1+ 2 i 0.2574(1) 0.7627(1) 0.0270(1) . 1. 0
K2 K1+ 2 i 0.7737(1) 0.4880(1) 0.5590(1) . 1. 0
K3 K1+ 2 i 0.7209(1) 0.0389(1) 0.3816(1) . 1. 0
K4 K1+ 2 i 0.7582(1) 0.5872(1) 0.1662(1) . 1. 0
O1 O2- 2 i 0.0352(3) 0.3441(3) 0.1903(2) . 1. 0
O2 O2- 2 i 0.0381(3) 0.8423(3) 0.3523(2) . 1. 0
O3 O2- 2 i 0.3720(4) 0.1588(4) 0.0872(2) . 1. 0
O4 O2- 2 i 0.4654(3) 0.2955(3) 0.3784(2) . 1. 0
loop_
_atom_site_aniso_label
_atom_site_aniso_type_symbol
_atom_site_aniso_beta_11
_atom_site_aniso_beta_22
_atom_site_aniso_beta_33
_atom_site_aniso_beta_12
_atom_site_aniso_beta_13
_atom_site_aniso_beta_23
Sn1 Sn4+ 0.00517(3) 0.00602(3) 0.00255(1) 0.00195(2) 0.00016(1) -.00117(1)
K1 K1+ 0.01056(12) 0.01051(12) 0.00515(5) 0.00076(10) 0.00140(6) -.00220(7)
K2 K1+ 0.00914(11) 0.01048(12) 0.00459(5) 0.00420(9) -.00051(5) -.00310(6)
K3 K1+ 0.01070(12) 0.01203(13) 0.00498(5) 0.00494(10) 0.00240(6) 0.00012(7)
K4 K1+ 0.01137(12) 0.01279(14) 0.00526(5) 0.00512(11) 0.00091(7) -.00113(7)
O1 O2- 0.00862(38) 0.00896(40) 0.00470(18) 0.00527(34) -.00036(21) -.00049(22)
O2 O2- 0.00977(41) 0.00607(37) 0.0053(2) 0.00106(32) 0.00125(22) -.00013(21)
O3 O2- 0.01414(52) 0.01767(62) 0.00501(21) 0.00515(47) 0.00350(26) -.00372(29)
O4 O2- 0.00631(34) 0.01064(43) 0.00372(16) 0.00186(32) -.00094(19) -.00308(22)
#End of TTdata_158-ICSD
