
#(C) 2019 by FIZ Karlsruhe - Leibniz Institute for Information Infrastructure.  All rights reserved.
data_268-ICSD
_database_code_ICSD 268
_audit_creation_date 1980-01-01
_audit_update_record 1987-02-13
_chemical_name_systematic 'Ditin sulfide diiodide'
_chemical_formula_structural 'Sn2 S I2'
_chemical_formula_sum 'I2 S1 Sn2'
_exptl_crystal_density_diffrn 5.33
_publ_section_title 'Kristallstruktur des Zinnsulfidjodids'
loop_
_citation_id
_citation_journal_full
_citation_year
_citation_journal_volume
_citation_page_first
_citation_page_last
_citation_journal_id_ASTM
primary Naturwissenschaften 1976 63 244 244 NATWAY
loop_
_publ_author_name
'Fenner, J.'
_cell_length_a 17.475(5)
_cell_length_b 4.412(2)
_cell_length_c 25.39(1)
_cell_angle_alpha 90.
_cell_angle_beta 90.
_cell_angle_gamma 90.
_cell_volume 1957.56
_cell_formula_units_Z 12
_symmetry_space_group_name_H-M 'P n m a'
_symmetry_Int_Tables_number 62
_refine_ls_R_factor_all 0.046
loop_
_symmetry_equiv_pos_site_id
_symmetry_equiv_pos_as_xyz
1 'x+1/2, y, -z+1/2'
2 'x, -y+1/2, z'
3 '-x+1/2, y+1/2, z+1/2'
4 '-x, -y, -z'
5 '-x+1/2, -y, z+1/2'
6 '-x, y+1/2, -z'
7 'x+1/2, -y+1/2, -z+1/2'
8 'x, y, z'
loop_
_atom_type_symbol
_atom_type_oxidation_number
I1- -1
Sn2+ 2
S2- -2
loop_
_atom_site_label
_atom_site_type_symbol
_atom_site_symmetry_multiplicity
_atom_site_Wyckoff_symbol
_atom_site_fract_x
_atom_site_fract_y
_atom_site_fract_z
_atom_site_B_iso_or_equiv
_atom_site_occupancy
_atom_site_attached_hydrogens
I1 I1- 4 c 0.46140(8) 0.25 0.31868(5) 0.0199 1. 0
I2 I1- 4 c 0.31809(8) 0.25 0.45248(6) 0.0217 1. 0
I3 I1- 4 c 0.15713(8) 0.75 0.13628(6) 0.0208 1. 0
I4 I1- 4 c 0.37116(7) 0.75 0.06228(6) 0.0164 1. 0
I5 I1- 4 c 0.20361(8) 0.25 0.28030(6) 0.0232 1. 0
I6 I1- 4 c 0.13000(8) 0.75 0.41480(6) 0.0239 1. 0
Sn1 Sn2+ 4 c 0.46818(9) 0.75 0.43481(6) 0.0215 1. 0
Sn2 Sn2+ 4 c 0.01507(8) 0.25 0.43885(6) 0.0218 1. 0
Sn3 Sn2+ 4 c 0.33079(8) 0.25 0.16333(6) 0.0206 1. 0
Sn4 Sn2+ 4 c 0.01275(9) 0.75 0.27770(6) 0.0249 1. 0
Sn5 Sn2+ 4 c 0.31542(10) 0.75 0.32005(6) 0.0293 1. 0
Sn6 Sn2+ 4 c 0.19723(8) 0.25 0.05142(7) 0.0285 1. 0
S1 S2- 4 c 0.0516(3) 0.25 0.0370(2) 0.016 1. 0
S2 S2- 4 c 0.4824(3) 0.25 0.1603(2) 0.018 1. 0
S3 S2- 4 c 0.3623(3) 0.75 0.2233(2) 0.018 1. 0
#End of TTdata_268-ICSD
