
#(C) 2019 by FIZ Karlsruhe - Leibniz Institute for Information Infrastructure.  All rights reserved.
data_105-ICSD
_database_code_ICSD 105
_audit_creation_date 1980-01-01
_audit_update_record 2011-08-01
_chemical_name_systematic 'Tellurium chloride (3/2)'
_chemical_formula_structural 'Te3 Cl2'
_chemical_formula_sum 'Cl2 Te3'
_exptl_crystal_density_diffrn 4.98
_publ_section_title 'Zur Kenntnis der Subhalogenide des Tellurs'
loop_
_citation_id
_citation_journal_full
_citation_year
_citation_journal_volume
_citation_page_first
_citation_page_last
_citation_journal_id_ASTM
primary 'Zeitschrift fuer Anorganische und Allgemeine Chemie (1950) (DE)' 1976
422 17 38 ZAACAB
loop_
_publ_author_name
'Kniep, R.'
'Mootz, D.'
'Rabenau, A.'
_cell_length_a 10.136(15)
_cell_length_b 8.635(3)
_cell_length_c 7.039(8)
_cell_angle_alpha 90.
_cell_angle_beta 100.74(6)
_cell_angle_gamma 90.
_cell_volume 605.29
_cell_formula_units_Z 4
_symmetry_space_group_name_H-M 'P 1 21/n 1'
_symmetry_Int_Tables_number 14
_refine_ls_R_factor_all 0.096
loop_
_symmetry_equiv_pos_site_id
_symmetry_equiv_pos_as_xyz
1 '-x+1/2, y+1/2, -z+1/2'
2 '-x, -y, -z'
3 'x+1/2, -y+1/2, z+1/2'
4 'x, y, z'
loop_
_atom_type_symbol
_atom_type_oxidation_number
Te0+ 0.67
Cl1- -1
loop_
_atom_site_label
_atom_site_type_symbol
_atom_site_symmetry_multiplicity
_atom_site_Wyckoff_symbol
_atom_site_fract_x
_atom_site_fract_y
_atom_site_fract_z
_atom_site_B_iso_or_equiv
_atom_site_occupancy
_atom_site_attached_hydrogens
Te1 Te0+ 4 e 0.0855(1) 0.2526(1) 0.0962(2) . 1. 0
Te2 Te0+ 4 e 0.1731(1) 0.1470(1) 0.4774(2) . 1. 0
Te3 Te0+ 4 e 0.3509(1) 0.3398(1) 0.0543(2) . 1. 0
Cl1 Cl1- 4 e 0.0160(5) 0.4888(5) 0.2581(7) . 1. 0
Cl2 Cl1- 4 e 0.1671(4) 0.0117(4) -.0528(6) . 1. 0
loop_
_atom_site_aniso_label
_atom_site_aniso_type_symbol
_atom_site_aniso_U_11
_atom_site_aniso_U_22
_atom_site_aniso_U_33
_atom_site_aniso_U_12
_atom_site_aniso_U_13
_atom_site_aniso_U_23
Te1 Te0+ 0.0147(4) 0.0070(3) 0.0221(5) -.0011(3) 0.0043(3) 0.0008(3)
Te2 Te0+ 0.0209(5) 0.0078(4) 0.0227(5) 0.0010(3) 0.0056(4) 0.0001(3)
Te3 Te0+ 0.0215(5) 0.0075(4) 0.0266(5) -.0025(3) 0.0089(4) -.0002(3)
Cl1 Cl1- 0.0303(21) 0.0146(16) 0.0278(20) 0.0069(14) 0.0039(17) -.0025(14)
Cl2 Cl1- 0.0220(18) 0.0130(14) 0.0304(20) -.0011(13) 0.0091(16) -.0044(13)
#End of TTdata_105-ICSD
