
#(C) 2019 by FIZ Karlsruhe - Leibniz Institute for Information Infrastructure.  All rights reserved.
data_306-ICSD
_database_code_ICSD 306
_audit_creation_date 1980-01-01
_audit_update_record 1985-04-02
_chemical_name_systematic Tetrakis(pentacarbonylmangano)dibromoditin
_chemical_formula_structural 'Br2 Sn2 (Mn (C O)5)4'
_chemical_formula_sum 'C20 Br2 Mn4 O20 Sn2'
_exptl_crystal_density_diffrn 2.31
_publ_section_title

;
Crystal and molecular structure of
1.1.2.2-tetrakis(pentacarbonyl-manganio)-1.2-dibromoditin, a transition metal
substituted di-Tin-compound
;
loop_
_citation_id
_citation_journal_full
_citation_year
_citation_journal_volume
_citation_page_first
_citation_page_last
_citation_journal_id_ASTM
primary 'Inorganic Chemistry' 1976 15 339 345 INOCAJ
loop_
_publ_author_name
'Spek, A.L.'
'Bos, K.D.'
'Bulten, E.J.'
'Noltes, J.G.'
_cell_length_a 16.591(5)
_cell_length_b 12.455(2)
_cell_length_c 17.214(8)
_cell_angle_alpha 90.
_cell_angle_beta 108.10(3)
_cell_angle_gamma 90.
_cell_volume 3381.1
_cell_formula_units_Z 4
_symmetry_space_group_name_H-M 'P 1 21/c 1'
_symmetry_Int_Tables_number 14
_refine_ls_R_factor_all 0.077
loop_
_symmetry_equiv_pos_site_id
_symmetry_equiv_pos_as_xyz
1 'x, -y+1/2, z+1/2'
2 '-x, -y, -z'
3 '-x, y+1/2, -z+1/2'
4 'x, y, z'
loop_
_atom_type_symbol
_atom_type_oxidation_number
Sn3+ 3
Br1- -1
Mn1- -1
C2+ 2
O2- -2
loop_
_atom_site_label
_atom_site_type_symbol
_atom_site_symmetry_multiplicity
_atom_site_Wyckoff_symbol
_atom_site_fract_x
_atom_site_fract_y
_atom_site_fract_z
_atom_site_B_iso_or_equiv
_atom_site_occupancy
_atom_site_attached_hydrogens
Sn1 Sn3+ 4 e 0.79889(3) 0.37809(4) 0.23469(3) . 1. 0
Sn2 Sn3+ 4 e 0.71514(3) 0.55455(4) 0.28637(3) . 1. 0
Br1 Br1- 4 e 0.8823(1) 0.3179(1) 0.3807(1) . 1. 0
Br2 Br1- 4 e 0.6213(1) 0.4385(1) 0.3474(1) . 1. 0
Mn1 Mn1- 4 e 0.9173(1) 0.4429(1) 0.1632(1) . 1. 0
Mn2 Mn1- 4 e 0.7060(1) 0.1995(1) 0.1798(1) . 1. 0
Mn3 Mn1- 4 e 0.8116(1) 0.6611(1) 0.4202(1) . 1. 0
Mn4 Mn1- 4 e 0.6064(1) 0.6704(1) 0.1613(1) . 1. 0
C1 C2+ 4 e 0.9974(5) 0.4852(6) 0.1177(4) . 1. 0
C2 C2+ 4 e 0.9995(5) 0.4013(5) 0.2578(4) . 1. 0
C3 C2+ 4 e 0.9158(5) 0.5736(6) 0.2122(4) . 1. 0
C4 C2+ 4 e 0.8287(5) 0.4843(6) 0.0736(5) . 1. 0
C5 C2+ 4 e 0.9115(5) 0.3076(7) 0.1192(5) . 1. 0
C6 C2+ 4 e 0.7088(5) 0.1714(7) 0.2862(5) . 1. 0
C7 C2+ 4 e 0.7083(4) 0.2404(6) 0.0777(4) . 1. 0
C8 C2+ 4 e 0.6518(6) 0.0738(7) 0.1403(5) . 1. 0
C9 C2+ 4 e 0.6070(5) 0.2749(7) 0.1643(5) . 1. 0
C10 C2+ 4 e 0.8099(5) 0.1354(6) 0.2050(4) . 1. 0
C11 C2+ 4 e 0.7085(6) 0.7077(7) 0.4280(5) . 1. 0
C12 C2+ 4 e 0.9097(6) 0.5981(7) 0.4113(5) . 1. 0
C13 C2+ 4 e 0.8152(5) 0.7694(6) 0.3493(4) . 1. 0
C14 C2+ 4 e 0.8022(5) 0.5447(6) 0.4848(4) . 1. 0
C15 C2+ 4 e 0.8740(5) 0.7422(6) 0.5071(4) . 1. 0
C16 C2+ 4 e 0.6139(5) 0.7816(6) 0.2349(4) . 1. 0
C17 C2+ 4 e 0.5336(5) 0.7473(6) 0.0778(5) . 1. 0
C18 C2+ 4 e 0.6997(5) 0.7243(6) 0.1388(4) . 1. 0
C19 C2+ 4 e 0.6069(6) 0.5537(8) 0.0964(6) . 1. 0
C20 C2+ 4 e 0.5218(6) 0.6095(8) 0.1935(7) . 1. 0
O1 O2- 4 e 1.0494(3) 0.5098(5) 0.0898(3) . 1. 0
O2 O2- 4 e 1.0532(3) 0.3788(4) 0.3158(3) . 1. 0
O3 O2- 4 e 0.9137(4) 0.6564(4) 0.2405(3) . 1. 0
O4 O2- 4 e 0.7756(4) 0.5141(5) 0.0184(4) . 1. 0
O5 O2- 4 e 0.9096(4) 0.2251(5) 0.0902(4) . 1. 0
O6 O2- 4 e 0.7105(4) 0.1472(5) 0.3513(3) . 1. 0
O7 O2- 4 e 0.7095(4) 0.2669(5) 0.0151(3) . 1. 0
O8 O2- 4 e 0.6174(4) -.0029(5) 0.1145(4) . 1. 0
O9 O2- 4 e 0.5435(4) 0.3178(5) 0.1526(4) . 1. 0
O10 O2- 4 e 0.8748(4) 0.0946(5) 0.2225(4) . 1. 0
O11 O2- 4 e 0.6465(4) 0.7349(6) 0.4363(4) . 1. 0
O12 O2- 4 e 0.9713(4) 0.5611(5) 0.4082(4) . 1. 0
O13 O2- 4 e 0.8085(4) 0.8372(5) 0.3060(4) . 1. 0
O14 O2- 4 e 0.7977(4) 0.4784(4) 0.5278(3) . 1. 0
O15 O2- 4 e 0.9128(4) 0.7964(4) 0.5578(3) . 1. 0
O16 O2- 4 e 0.6180(3) 0.8529(4) 0.2769(3) . 1. 0
O17 O2- 4 e 0.4898(4) 0.7935(5) 0.0244(3) . 1. 0
O18 O2- 4 e 0.7565(4) 0.7584(5) 0.1236(3) . 1. 0
O19 O2- 4 e 0.6060(3) 0.4836(5) 0.0539(3) . 1. 0
O20 O2- 4 e 0.4658(5) 0.5770(6) 0.2134(4) . 1. 0
loop_
_atom_site_aniso_label
_atom_site_aniso_type_symbol
_atom_site_aniso_beta_11
_atom_site_aniso_beta_22
_atom_site_aniso_beta_33
_atom_site_aniso_beta_12
_atom_site_aniso_beta_13
_atom_site_aniso_beta_23
Sn1 Sn3+ 0.0359(5) 0.0347(5) 0.0332(5) -.0011(3) 0.0079(3) -.0038(4)
Sn2 Sn3+ 0.0361(5) 0.0402(5) 0.0332(5) -.0012(3) 0.0102(3) -.0045(2)
Br1 Br1- 0.0587(7) 0.0599(7) 0.0410(6) -.0034(5) 0.0023(5) 0.0053(4)
Br2 Br1- 0.0670(8) 0.0814(8) 0.0663(7) -.0241(6) 0.0292(5) 0.0011(6)
Mn1 Mn1- 0.0413(8) 0.0419(8) 0.0378(8) 0.0028(6) 0.0116(6) -.0008(6)
Mn2 Mn1- 0.0516(9) 0.0454(8) 0.0407(8) -.0097(6) 0.0105(6) -.0051(6)
Mn3 Mn1- 0.0468(8) 0.0423(8) 0.0340(7) -.0022(6) 0.0122(6) -.0043(5)
Mn4 Mn1- 0.0397(9) 0.0536(9) 0.0476(8) 0.0062(6) 0.0076(6) -.0005(5)
C1 C2+ 0.050(5) 0.058(5) 0.041(4) 0.005(4) 0.007(4) 0.003(4)
C2 C2+ 0.047(5) 0.035(4) 0.051(5) 0.001(4) 0.013(4) 0.001(4)
C3 C2+ 0.043(5) 0.053(5) 0.034(4) 0.001(4) 0.013(4) 0.009(4)
C4 C2+ 0.051(6) 0.047(6) 0.058(5) -.010(6) 0.019(5) -.007(5)
C5 C2+ 0.053(6) 0.058(7) 0.046(5) 0.012(5) 0.008(5) -.005(5)
C6 C2+ 0.070(7) 0.069(7) 0.068(6) -.031(5) 0.026(5) -.012(5)
C7 C2+ 0.036(5) 0.041(5) 0.050(5) 0.003(4) -.004(4) -.014(4)
C8 C2+ 0.080(7) 0.062(6) 0.053(6) -.013(5) 0.004(5) -.012(5)
C9 C2+ 0.052(6) 0.074(7) 0.062(6) -.017(5) 0.019(5) -.020(5)
C10 C2+ 0.074(6) 0.043(5) 0.046(5) 0.007(5) 0.010(5) 0.001(5)
C11 C2+ 0.067(7) 0.059(6) 0.03(5) 0.002(5) 0.005(5) 0.003(4)
C12 C2+ 0.055(6) 0.051(8) 0.036(5) -.016(5) 0.016(5) -.001(4)
C13 C2+ 0.053(5) 0.056(6) 0.033(5) -.020(4) 0.007(4) -.008(4)
C14 C2+ 0.045(5) 0.061(6) 0.041(5) 0.000(4) 0.012(4) -.004(4)
C15 C2+ 0.050(5) 0.042(5) 0.041(5) 0.010(4) 0.013(4) -.001(4)
C16 C2+ 0.065(6) 0.055(6) 0.043(5) 0.018(5) 0.010(5) 0.009(4)
C17 C2+ 0.049(6) 0.064(6) 0.054(5) 0.008(5) -.005(4) -.017(5)
C18 C2+ 0.051(6) 0.063(6) 0.040(5) 0.002(5) 0.012(5) 0.005(4)
C19 C2+ 0.067(7) 0.072(8) 0.057(7) 0.014(6) 0.001(5) 0.002(4)
C20 C2+ 0.046(7) 0.081(8) 0.119(9) 0.016(6) 0.026(6) 0.023(7)
O1 O2- 0.053(4) 0.112(5) 0.063(4) -.004(4) 0.031(3) 0.004(4)
O2 O2- 0.054(4) 0.072(4) 0.059(4) 0.006(3) 0.004(3) 0.013(3)
O3 O2- 0.093(4) 0.042(4) 0.056(4) 0.007(3) 0.028(3) -.001(3)
O4 O2- 0.081(5) 0.080(5) 0.074(5) -.002(4) -.020(4) 0.015(4)
O5 O2- 0.085(5) 0.061(6) 0.107(6) 0.007(4) 0.024(4) -.036(4)
O6 O2- 0.119(6) 0.132(6) 0.053(4) -.060(5) 0.022(4) 0.003(4)
O7 O2- 0.088(5) 0.089(5) 0.038(3) -.009(4) 0.014(4) -.004(3)
O8 O2- 0.146(7) 0.070(5) 0.101(6) -.057(5) 0.012(5) -.025(4)
O9 O2- 0.052(4) 0.129(6) 0.109(6) 0.000(4) 0.020(4) -.039(5)
O10 O2- 0.101(6) 0.091(5) 0.080(4) 0.048(5) 0.007(4) 0.004(4)
O11 O2- 0.051(4) 0.129(6) 0.069(5) 0.027(4) 0.019(4) 0.002(1)
O12 O2- 0.049(4) 0.065(4) 0.077(4) -.004(4) 0.024(4) -.007(3)
O13 O2- 0.084(5) 0.062(4) 0.063(4) -.021(3) 0.018(3) 0.010(3)
O14 O2- 0.094(5) 0.072(4) 0.058(4) -.009(4) 0.027(4) 0.022(3)
O15 O2- 0.068(4) 0.061(4) 0.053(4) -.001(3) 0.002(3) -.023(3)
O16 O2- 0.109(5) 0.072(4) 0.064(4) 0.029(4) 0.019(4) -.009(3)
O17 O2- 0.068(4) 0.093(5) 0.064(4) 0.020(4) -.017(3) 0.004(3)
O18 O2- 0.058(4) 0.130(6) 0.057(4) -.011(4) 0.015(34) 0.007(4)
O19 O2- 0.123(6) 0.083(6) 0.091(6) 0.014(5) 0.020(5) -.029(4)
O20 O2- 0.061(5) 0.123(7) 0.246(11) 0.018(5) 0.064(6) 0.065(7)
#End of TTdata_306-ICSD
