
#(C) 2019 by FIZ Karlsruhe - Leibniz Institute for Information Infrastructure.  All rights reserved.
data_187-ICSD
_database_code_ICSD 187
_audit_creation_date 1980-01-01
_audit_update_record 2012-08-01
_chemical_name_systematic 'Distrontium diniobate - HT'
_chemical_formula_structural 'Sr2 (Nb2 O7)'
_chemical_formula_sum 'Nb2 O7 Sr2'
_chemical_name_structure_type Sr2Nb2O7
_exptl_crystal_density_diffrn 5.26
_publ_section_title
'The crystal structure of Sr2 Nb2 O7, a compound with perovskite-type slabs'
loop_
_citation_id
_citation_journal_full
_citation_year
_citation_journal_volume
_citation_page_first
_citation_page_last
_citation_journal_id_ASTM
primary

;
Acta Crystallographica, Section B: Structural Crystallography and Crystal
Chemistry
; 1975 31 1912 1915 ACBCAR
loop_
_publ_author_name
'Ishizawa, N.'
'Marumo, F.'
'Kawamura, T.'
'Kimura, M.'
_cell_length_a 3.933(1)
_cell_length_b 26.726(7)
_cell_length_c 5.683(4)
_cell_angle_alpha 90.
_cell_angle_beta 90.
_cell_angle_gamma 90.
_cell_volume 597.36
_cell_formula_units_Z 4
_symmetry_space_group_name_H-M 'C m c 21'
_symmetry_Int_Tables_number 36
_refine_ls_R_factor_all 0.081
loop_
_symmetry_equiv_pos_site_id
_symmetry_equiv_pos_as_xyz
1 'x, -y, z+1/2'
2 '-x, -y, z+1/2'
3 '-x, y, z'
4 'x, y, z'
5 'x+1/2, -y+1/2, z+1/2'
6 '-x+1/2, -y+1/2, z+1/2'
7 '-x+1/2, y+1/2, z'
8 'x+1/2, y+1/2, z'
loop_
_atom_type_symbol
_atom_type_oxidation_number
Sr2+ 2
Nb5+ 5
O2- -2
loop_
_atom_site_label
_atom_site_type_symbol
_atom_site_symmetry_multiplicity
_atom_site_Wyckoff_symbol
_atom_site_fract_x
_atom_site_fract_y
_atom_site_fract_z
_atom_site_B_iso_or_equiv
_atom_site_occupancy
_atom_site_attached_hydrogens
Sr1 Sr2+ 4 a 0 0.7059(2) 0.4747(8) . 1. 0
Sr2 Sr2+ 4 a 0 0.4484(2) 0.5377(7) . 1. 0
Nb1 Nb5+ 4 a 0.5 0.3381(2) 0.5062(6) . 1. 0
Nb2 Nb5+ 4 a 0.5 0.5577(2) 0.5348(6) . 1. 0
O1 O2- 4 a 0 0.007(2) 0.287(6) 1.5 1. 0
O2 O2- 4 a 0 0.113(2) 0.340(7) 2.5 1. 0
O3 O2- 4 a 0.5 0.150(1) 0.048(5) 1.2 1. 0
O4 O2- 4 a 0 0.213(2) 0.225(5) 1.4 1. 0
O5 O2- 4 a 0.5 0.299(2) 0.241(5) 1.4 1. 0
O6 O2- 4 a 0.5 0.408(1) 0.336(5) 1.2 1. 0
O7 O2- 4 a 0 0.450(1) 0.066(4) 1.1 1. 0
loop_
_atom_site_aniso_label
_atom_site_aniso_type_symbol
_atom_site_aniso_beta_11
_atom_site_aniso_beta_22
_atom_site_aniso_beta_33
_atom_site_aniso_beta_12
_atom_site_aniso_beta_13
_atom_site_aniso_beta_23
Sr1 Sr2+ 0.0108(10) 0.0010(1) 0.0104(8) 0 0 0.0015(3)
Sr2 Sr2+ 0.0089(9) 0.0003(1) 0.0056(6) 0 0 -.0002(2)
Nb1 Nb5+ 0.0063(9) 0.0003(1) 0.0041(5) 0 0 0.0003(2)
Nb2 Nb5+ 0.0052(8) 0.0003(1) 0.0042(5) 0 0 -.0002(2)
#End of TTdata_187-ICSD
