
#(C) 2019 by FIZ Karlsruhe - Leibniz Institute for Information Infrastructure.  All rights reserved.
data_126-ICSD
_database_code_ICSD 126
_audit_creation_date 1980-01-01
_audit_update_record 2011-08-01
_chemical_name_systematic 'Dipotassium ditantalum trioxide fluoride'
_chemical_formula_structural 'K2 Ta2 O3 F6'
_chemical_formula_sum 'F6 K2 O3 Ta2'
_chemical_name_structure_type KPbCr2F9
_exptl_crystal_density_diffrn 4.84
_publ_section_title 'Struktura soli marinyaka'
loop_
_citation_id
_citation_journal_full
_citation_year
_citation_journal_volume
_citation_page_first
_citation_page_last
_citation_journal_id_ASTM
primary 'Zhurnal Strukturnoi Khimii' 1976 17 129 134 ZSTKAI
loop_
_publ_author_name
'Rogachev, D.L.'
'Kuznetsova, V.G.'
'Bogdanova, A.V.'
'Dikareva, D.'
'Porai-Koshits, M.A.'
_cell_length_a 10.22(4)
_cell_length_b 5.57(2)
_cell_length_c 14.52(4)
_cell_angle_alpha 90.
_cell_angle_beta 90.
_cell_angle_gamma 90.
_cell_volume 826.56
_cell_formula_units_Z 4
_symmetry_space_group_name_H-M 'P n m a'
_symmetry_Int_Tables_number 62
_refine_ls_R_factor_all 0.085
loop_
_symmetry_equiv_pos_site_id
_symmetry_equiv_pos_as_xyz
1 'x+1/2, y, -z+1/2'
2 'x, -y+1/2, z'
3 '-x+1/2, y+1/2, z+1/2'
4 '-x, -y, -z'
5 '-x+1/2, -y, z+1/2'
6 '-x, y+1/2, -z'
7 'x+1/2, -y+1/2, -z+1/2'
8 'x, y, z'
loop_
_atom_type_symbol
_atom_type_oxidation_number
Ta5+ 5
K1+ 1
F1- -1
O2- -2
loop_
_atom_site_label
_atom_site_type_symbol
_atom_site_symmetry_multiplicity
_atom_site_Wyckoff_symbol
_atom_site_fract_x
_atom_site_fract_y
_atom_site_fract_z
_atom_site_B_iso_or_equiv
_atom_site_occupancy
_atom_site_attached_hydrogens
Ta1 Ta5+ 4 c 0.066(4) 0.25 0.150(3) 1.58 1. 0
Ta2 Ta5+ 4 c 0.282(4) 0.25 0.508(4) 1.61 1. 0
K1 K1+ 4 c 0.44(2) 0.25 0.10(2) 2.3 1. 0
K2 K1+ 4 c 0.24(3) 0.25 0.80(3) 4.2 1. 0
F1 F1- 4 c 0.24(6) 0.25 0.21(6) 2. 1. 0
F2 F1- 8 d 0.02(4) 0.02 0.24(3) 1.4 1. 0
F3 F1- 8 d 0.17(3) 0.01 0.45(3) 1.3 1. 0
F4 F1- 4 c 0.15(4) 0.25 0.60(5) 1.1 1. 0
O1 O2- 4 c 0.40(6) 0.25 0.43(6) 2.3 1. 0
O2 O2- 8 d 0.13(5) 0 0.07(5) 4. 1. 0
#End of TTdata_126-ICSD
