
#(C) 2019 by FIZ Karlsruhe - Leibniz Institute for Information Infrastructure.  All rights reserved.
data_122-ICSD
_database_code_ICSD 122
_audit_creation_date 1980-01-01
_audit_update_record 2011-08-01
_chemical_name_systematic 'Dipotassium aquapentachloroindate'
_chemical_formula_structural 'K2 (In Cl5 (H2 O))'
_chemical_formula_sum 'H2 Cl5 In1 K2 O1'
_chemical_name_structure_type K2InCl5H2O
_exptl_crystal_density_diffrn 2.59
_publ_section_title 'Potassium pentachloroindate monohydrate, K2 (In Cl5, H2 O)'
loop_
_citation_id
_citation_journal_full
_citation_year
_citation_journal_volume
_citation_page_first
_citation_page_last
_citation_journal_id_ASTM
primary 'Crystal Structure Communications' 1976 5 293 296 CSCMCS
loop_
_publ_author_name
'Wignacourt, J.P.'
'Mairesse, G.'
'Barbier, P.'
_cell_length_a 13.905
_cell_length_b 9.952
_cell_length_c 7.185
_cell_angle_alpha 90.
_cell_angle_beta 90.
_cell_angle_gamma 90.
_cell_volume 994.28
_cell_formula_units_Z 4
_symmetry_space_group_name_H-M 'P n m a'
_symmetry_Int_Tables_number 62
_refine_ls_R_factor_all 0.071
loop_
_symmetry_equiv_pos_site_id
_symmetry_equiv_pos_as_xyz
1 'x+1/2, y, -z+1/2'
2 'x, -y+1/2, z'
3 '-x+1/2, y+1/2, z+1/2'
4 '-x, -y, -z'
5 '-x+1/2, -y, z+1/2'
6 '-x, y+1/2, -z'
7 'x+1/2, -y+1/2, -z+1/2'
8 'x, y, z'
loop_
_atom_type_symbol
_atom_type_oxidation_number
In3+ 3
Cl1- -1
O2- -2
K1+ 1
H1+ 1
loop_
_atom_site_label
_atom_site_type_symbol
_atom_site_symmetry_multiplicity
_atom_site_Wyckoff_symbol
_atom_site_fract_x
_atom_site_fract_y
_atom_site_fract_z
_atom_site_B_iso_or_equiv
_atom_site_occupancy
_atom_site_attached_hydrogens
In1 In3+ 4 c 0.11301(4) 0.25 0.81282(10) . 1. 0
Cl1 Cl1- 4 c 0.21698(26) 0.25 1.09029(43) . 1. 0
Cl2 Cl1- 4 c 0.25518(20) 0.25 0.60589(40) . 1. 0
Cl3 Cl1- 4 c 0.00191(23) 0.25 0.54183(48) . 1. 0
Cl4 Cl1- 8 d 0.10483(20) 0.00049 0.81624(40) . 1. 0
O1 O2- 4 c -.01314(60) 0.25 1.0031(13) . 1. 0
K1 K1+ 8 d 0.35250(17) 0.00032(24) 0.85743(34) . 1. 0
loop_
_atom_site_aniso_label
_atom_site_aniso_type_symbol
_atom_site_aniso_beta_11
_atom_site_aniso_beta_22
_atom_site_aniso_beta_33
_atom_site_aniso_beta_12
_atom_site_aniso_beta_13
_atom_site_aniso_beta_23
In1 In3+ 0.00197 0.00275 0.00893 0 0.00038 0
Cl1 Cl1- 0.00485 0.01695 0.01031 0 -.00181 0
Cl2 Cl1- 0.00294 0.00761 0.01229 0 0.00198 0
Cl3 Cl1- 0.00373 0.01223 0.01771 0 -.00311 0
Cl4 Cl1- 0.0076 0.0029 0.03019 0.00022 0.00714 0.00155
O1 O2- 0.0042 0.00489 0.02476 0 0.0051 0
K1 K1+ 0.0052 0.00954 0.02159 0.00008 -.00173 0.00307
#End of TTdata_122-ICSD
