
#(C) 2019 by FIZ Karlsruhe - Leibniz Institute for Information Infrastructure.  All rights reserved.
data_210-ICSD
_database_code_ICSD 210
_audit_creation_date 1980-01-01
_audit_update_record 2009-08-01
_chemical_name_systematic
'Potassium oxonium dodecamolybdophosphate(V) (2.7/0.3/1)'
_chemical_formula_structural 'K2.7 (H3 O)0.3 (P Mo12 O40)'
_chemical_formula_sum 'H0.9 K2.7 Mo12 O40.3 P1'
_exptl_crystal_density_diffrn 4.11
_publ_section_title

;
Crystallographic study of the ammonium/potassium 12-molybdophosphate
ion-exchange system
;
loop_
_citation_id
_citation_journal_full
_citation_year
_citation_journal_volume
_citation_page_first
_citation_page_last
_citation_journal_id_ASTM
primary 'Journal of Solid State Chemistry' 1976 18 191 199 JSSCBI
loop_
_publ_author_name
'Boeyens, J.C.A.'
'McDougal, G.J.'
'van Smit, J.'
_cell_length_a 11.60(1)
_cell_length_b 11.60(1)
_cell_length_c 11.60(1)
_cell_angle_alpha 90.
_cell_angle_beta 90.
_cell_angle_gamma 90.
_cell_volume 1560.9
_cell_formula_units_Z 2
_symmetry_space_group_name_H-M 'P n -3 m Z'
_symmetry_Int_Tables_number 224
_refine_ls_R_factor_all 0.039
loop_
_symmetry_equiv_pos_site_id
_symmetry_equiv_pos_as_xyz
1 '-y, x+1/2, z+1/2'
2 'y+1/2, x+1/2, -z'
3 'y+1/2, -x, z+1/2'
4 '-y, -x, -z'
5 '-z, x+1/2, y+1/2'
6 'z+1/2, x+1/2, -y'
7 'z+1/2, -x, y+1/2'
8 '-z, -x, -y'
9 'z+1/2, -y, x+1/2'
10 '-z, y+1/2, x+1/2'
11 'z+1/2, y+1/2, -x'
12 '-z, -y, -x'
13 'y+1/2, -z, x+1/2'
14 '-y, z+1/2, x+1/2'
15 'y+1/2, z+1/2, -x'
16 '-y, -z, -x'
17 'x+1/2, z+1/2, -y'
18 'x+1/2, -z, y+1/2'
19 '-x, z+1/2, y+1/2'
20 '-x, -z, -y'
21 'x+1/2, y+1/2, -z'
22 'x+1/2, -y, z+1/2'
23 '-x, y+1/2, z+1/2'
24 '-x, -y, -z'
25 'y, -x+1/2, -z+1/2'
26 '-y+1/2, -x+1/2, z'
27 '-y+1/2, x, -z+1/2'
28 'y, x, z'
29 'z, -x+1/2, -y+1/2'
30 '-z+1/2, -x+1/2, y'
31 '-z+1/2, x, -y+1/2'
32 'z, x, y'
33 '-z+1/2, y, -x+1/2'
34 'z, -y+1/2, -x+1/2'
35 '-z+1/2, -y+1/2, x'
36 'z, y, x'
37 '-y+1/2, z, -x+1/2'
38 'y, -z+1/2, -x+1/2'
39 '-y+1/2, -z+1/2, x'
40 'y, z, x'
41 '-x+1/2, -z+1/2, y'
42 '-x+1/2, z, -y+1/2'
43 'x, -z+1/2, -y+1/2'
44 'x, z, y'
45 '-x+1/2, -y+1/2, z'
46 '-x+1/2, y, -z+1/2'
47 'x, -y+1/2, -z+1/2'
48 'x, y, z'
loop_
_atom_type_symbol
_atom_type_oxidation_number
Mo6+ 6
O2- -2
P5+ 5
K1+ 1
O2- -2
H1+ 1
loop_
_atom_site_label
_atom_site_type_symbol
_atom_site_symmetry_multiplicity
_atom_site_Wyckoff_symbol
_atom_site_fract_x
_atom_site_fract_y
_atom_site_fract_z
_atom_site_B_iso_or_equiv
_atom_site_occupancy
_atom_site_attached_hydrogens
Mo1 Mo6+ 24 k 0.4679(9) 0.4679(9) 0.2584(15) 1.5 1. 0
O1 O2- 24 k 0.6520(9) 0.6520(9) 0.0064(14) 1.63 1. 0
O2 O2- 24 k 0.0688(10) 0.0688(10) 0.7662(15) 2.42 1. 0
O3 O2- 24 k 0.1224(9) 0.1224(9) 0.5415(12) 1.38 1. 0
O4 O2- 8 e 0.3266(14) 0.3266(14) 0.3266(14) 1.46 1. 0
P1 P5+ 2 a 0.25 0.25 0.25 0.36 1. 0
K1 K1+ 6 d 0.25 0.75 0.75 1.5 0.9 0
O5 O2- 6 d 0.25 0.75 0.75 . 0.1 0
#End of TTdata_210-ICSD
