
#(C) 2019 by FIZ Karlsruhe - Leibniz Institute for Information Infrastructure.  All rights reserved.
data_194-ICSD
_database_code_ICSD 194
_audit_creation_date 1980-01-01
_audit_update_record 2012-08-01
_chemical_name_systematic 'Copper hexahydroxostannate'
_chemical_formula_structural 'Cu (Sn (O H)6)'
_chemical_formula_sum 'H6 Cu1 O6 Sn1'
_chemical_name_structure_type CuSn(OH)6
_chemical_name_mineral Mushistonite
_exptl_crystal_density_diffrn 4.05
_publ_section_title
'Effet Jahn-Teller et structure cristalline de l'hydroxyde Cu Sn (O H)6'
loop_
_citation_id
_citation_journal_full
_citation_year
_citation_journal_volume
_citation_page_first
_citation_page_last
_citation_journal_id_ASTM
primary 'Journal of Solid State Chemistry' 1976 17 399 406 JSSCBI
loop_
_publ_author_name
'Morgenstern Badarau, I.'
_cell_length_a 7.586(1)
_cell_length_b 7.586(1)
_cell_length_c 8.103(1)
_cell_angle_alpha 90.
_cell_angle_beta 90.
_cell_angle_gamma 90.
_cell_volume 466.31
_cell_formula_units_Z 4
_symmetry_space_group_name_H-M 'P 42/n n m Z'
_symmetry_Int_Tables_number 134
_refine_ls_R_factor_all 0.04
loop_
_symmetry_equiv_pos_site_id
_symmetry_equiv_pos_as_xyz
1 'y, x, -z'
2 'y+1/2, -x, -z+1/2'
3 '-y, x+1/2, -z+1/2'
4 '-y+1/2, -x+1/2, -z'
5 '-y, -x, z'
6 '-y+1/2, x, z+1/2'
7 'y, -x+1/2, z+1/2'
8 'y+1/2, x+1/2, z'
9 'x+1/2, y+1/2, -z'
10 '-x+1/2, y, -z+1/2'
11 'x, -y+1/2, -z+1/2'
12 '-x, -y, -z'
13 '-x+1/2, -y+1/2, z'
14 'x+1/2, -y, z+1/2'
15 '-x, y+1/2, z+1/2'
16 'x, y, z'
loop_
_atom_type_symbol
_atom_type_oxidation_number
Sn4+ 4
Cu2+ 2
O2- -2
H1+ 1
loop_
_atom_site_label
_atom_site_type_symbol
_atom_site_symmetry_multiplicity
_atom_site_Wyckoff_symbol
_atom_site_fract_x
_atom_site_fract_y
_atom_site_fract_z
_atom_site_B_iso_or_equiv
_atom_site_occupancy
_atom_site_attached_hydrogens
Sn1 Sn4+ 4 e 0.5 0.5 0.5 1.15 1. 0
Cu1 Cu2+ 4 f 0 0 0 1.2 1. 0
O1 O2- 16 n 0.063 0.2435 -.077 1.87 1. 0
O2 O2- 8 m -.075 0.075 0.264 1.08 1. 0
#End of TTdata_194-ICSD
