
#(C) 2019 by FIZ Karlsruhe - Leibniz Institute for Information Infrastructure.  All rights reserved.
data_242-ICSD
_database_code_ICSD 242
_audit_creation_date 1980-01-01
_audit_update_record 2017-02-01
_chemical_name_systematic 'Copper selenide (1/2)'
_chemical_formula_structural 'Cu Se2'
_chemical_formula_sum 'Cu1 Se2'
_chemical_name_structure_type Marcasite-FeS2(oP6)
_chemical_name_mineral Petricekite
_exptl_crystal_density_diffrn 6.36
_publ_section_title

;
Crystal structures of Cu1.8 Se, Cu3 Se2, alpha- and gamma-Cu Se2, and Cu Se2
II
;
loop_
_citation_id
_citation_journal_full
_citation_year
_citation_journal_volume
_citation_page_first
_citation_page_last
_citation_journal_id_ASTM
primary 'Canadian Journal of Chemistry' 1976 54 841 848 CJCHAG
loop_
_publ_author_name
'Heyding, R.'
'MacLaren Murray, R.'
_cell_length_a 5.005
_cell_length_b 6.182
_cell_length_c 3.74
_cell_angle_alpha 90.
_cell_angle_beta 90.
_cell_angle_gamma 90.
_cell_volume 115.72
_cell_formula_units_Z 2
_symmetry_space_group_name_H-M 'P n n m'
_symmetry_Int_Tables_number 58
_refine_ls_R_factor_all 0.041
loop_
_symmetry_equiv_pos_site_id
_symmetry_equiv_pos_as_xyz
1 'x+1/2, -y+1/2, z+1/2'
2 '-x+1/2, y+1/2, z+1/2'
3 'x, y, -z'
4 '-x, -y, -z'
5 '-x+1/2, y+1/2, -z+1/2'
6 'x+1/2, -y+1/2, -z+1/2'
7 '-x, -y, z'
8 'x, y, z'
loop_
_atom_type_symbol
_atom_type_oxidation_number
Cu2+ 2
Se1- -1
loop_
_atom_site_label
_atom_site_type_symbol
_atom_site_symmetry_multiplicity
_atom_site_Wyckoff_symbol
_atom_site_fract_x
_atom_site_fract_y
_atom_site_fract_z
_atom_site_B_iso_or_equiv
_atom_site_occupancy
_atom_site_attached_hydrogens
Cu1 Cu2+ 2 a 0 0 0 3.1 1. 0
Se1 Se1- 4 g 0.184(1) 0.385(1) 0 1.6 1. 0
#End of TTdata_242-ICSD
