
#(C) 2019 by FIZ Karlsruhe - Leibniz Institute for Information Infrastructure.  All rights reserved.
data_331-ICSD
_database_code_ICSD 331
_audit_creation_date 1986-08-12
_audit_update_record 2009-08-01
_chemical_name_systematic
'Potassium tecto-decaalumodecasilicate hydroxide hydrate (13.5/1/3/13)'
_chemical_formula_structural 'K13.5 (Si10 Al10 O40) (O H)3 (H2 O)13'
_chemical_formula_sum 'H29 Al10 K13.5 O56 Si10'
_chemical_name_mineral 'Zeolite K-F'
_exptl_crystal_density_diffrn 2.58
_publ_section_title 'The crystal structure of synthetic zeolite K-F'
loop_
_citation_id
_citation_journal_full
_citation_year
_citation_journal_volume
_citation_page_first
_citation_page_last
_citation_journal_id_ASTM
primary

;
Acta Crystallographica, Section B: Structural Crystallography and Crystal
Chemistry
; 1976 32 1714 1719 ACBCAR
loop_
_publ_author_name
'Tambuyzer, E.'
'Bosmans, H.J.'
_cell_length_a 13.995
_cell_length_b 13.995
_cell_length_c 13.154
_cell_angle_alpha 90.
_cell_angle_beta 90.
_cell_angle_gamma 90.
_cell_volume 2576.34
_cell_formula_units_Z 2
_symmetry_space_group_name_H-M 'C c c 2'
_symmetry_Int_Tables_number 37
_refine_ls_R_factor_all 0.22
loop_
_symmetry_equiv_pos_site_id
_symmetry_equiv_pos_as_xyz
1 'x, -y, z+1/2'
2 '-x, y, z+1/2'
3 '-x, -y, z'
4 'x, y, z'
5 'x+1/2, -y+1/2, z+1/2'
6 '-x+1/2, y+1/2, z+1/2'
7 '-x+1/2, -y+1/2, z'
8 'x+1/2, y+1/2, z'
loop_
_atom_type_symbol
_atom_type_oxidation_number
Si4+ 4
Al3+ 3
O2- -2
K1+ 1
O2- -2
H1+ 1
loop_
_atom_site_label
_atom_site_type_symbol
_atom_site_symmetry_multiplicity
_atom_site_Wyckoff_symbol
_atom_site_fract_x
_atom_site_fract_y
_atom_site_fract_z
_atom_site_B_iso_or_equiv
_atom_site_occupancy
_atom_site_attached_hydrogens
Si1 Si4+ 4 c 0.25 0.25 0.5132(40) 1.2 1. 0
Si2 Si4+ 8 d 0.3880(21) 0.2403(21) 0.2045(38) 1.2 1. 0
Si3 Si4+ 8 d 0.1798(18) 0.1118(18) 0.8076(46) 1.2 1. 0
Al1 Al3+ 4 c 0.25 0.25 0 1.2 1. 0
Al2 Al3+ 8 d 0.3777(17) 0.2195(15) 0.6840(22) 1.2 1. 0
Al3 Al3+ 8 d 0.2437(16) 0.1010(15) 0.3238(23) 1.2 1. 0
O1 O2- 8 d 0.3388(28) 0.2697(43) 0.0881(50) 1.2 1. 0
O2 O2- 8 d 0.3341(39) 0.1556(38) 0.2449(54) 1.2 1. 0
O3 O2- 8 d 0.1386(38) 0.1682(37) 0.2738(47) 1.2 1. 0
O4 O2- 8 d 0.2644(35) 0.1620(41) 0.4284(47) 1.2 1. 0
O5 O2- 8 d 0.3407(47) 0.2784(43) 0.5779(47) 1.2 1. 0
O6 O2- 8 d 0.2864(36) 0.1467(42) 0.7673(52) 1.2 1. 0
O7 O2- 8 d 0.4027(39) 0.3072(39) 0.7766(48) 1.2 1. 0
O8 O2- 8 d 0.2273(36) 0.1594(39) 0.9096(44) 1.2 1. 0
O9 O2- 8 d 0.5008(56) 0.2006(33) 0.6994(49) 1.2 1. 0
O10 O2- 8 d 0.1755(34) -.0062(45) 0.3431(47) 1.2 1. 0
K1 K1+ 4 b 0 0.5 0.6855(45) 1.2 0.82 0
K2 K1+ 8 d 0.2283(15) 0.4998(32) 0.5645(27) 1.2 0.74 0
K3 K1+ 8 d 0.2723(40) 0.5384(39) 0.6324(61) 1.2 0.18 0
K4 K1+ 8 d 0.4547(16) 0.1598(42) 0.4448(17) 1.2 0.73 0
K5 K1+ 8 d 0.0121(46) 0.4011(36) 0.4974(62) 1.2 0.17 0
K6 K1+ 8 d 0.0375(19) 0.1387(20) 0.4535(44) 1.2 0.49 0
K7 K1+ 8 d 0.4763(28) 0.3977(23) 0.5561(48) 1.2 0.38 0
K8 K1+ 4 a 0 0 0.7398(48) 1.2 0.55 0
O11 O2- 8 d 0.1309(32) 0.4410(33) 0.8651(58) 1.2 1. 0
#End of TTdata_331-ICSD
