
#(C) 2019 by FIZ Karlsruhe - Leibniz Institute for Information Infrastructure.  All rights reserved.
data_251-ICSD
_database_code_ICSD 251
_audit_creation_date 1980-01-01
_audit_update_record 2011-08-01
_chemical_name_systematic 'Yttrium indium oxide'
_chemical_formula_structural 'Y In O3'
_chemical_formula_sum 'In1 O3 Y1'
_chemical_name_structure_type LuMnO3
_exptl_crystal_density_diffrn 6.03
_publ_section_title

;
Stability and structure of noncentrosymmetric hexagonal Ln In O3. (Ln = Eu,
Gd, Tb, Dy, Ho, Y)
;
loop_
_citation_id
_citation_journal_full
_citation_year
_citation_journal_volume
_citation_page_first
_citation_page_last
_citation_journal_id_ASTM
primary 'Journal of Inorganic and Nuclear Chemistry' 1976 38 1471 1475 JINCAO
loop_
_publ_author_name
'Pistorius, C.W.F.T.'
'Kruger, G.J.'
_cell_length_a 6.260(5)
_cell_length_b 6.260(5)
_cell_length_c 12.249(3)
_cell_angle_alpha 90.
_cell_angle_beta 90.
_cell_angle_gamma 120.
_cell_volume 415.7
_cell_formula_units_Z 6
_symmetry_space_group_name_H-M 'P 63 c m'
_symmetry_Int_Tables_number 185
_refine_ls_R_factor_all 0.028
loop_
_symmetry_equiv_pos_site_id
_symmetry_equiv_pos_as_xyz
1 'x, x-y, z+1/2'
2 '-x+y, y, z+1/2'
3 '-y, -x, z+1/2'
4 'x-y, x, z+1/2'
5 'y, -x+y, z+1/2'
6 '-x, -y, z+1/2'
7 '-x, -x+y, z'
8 'x-y, -y, z'
9 'y, x, z'
10 '-x+y, -x, z'
11 '-y, x-y, z'
12 'x, y, z'
loop_
_atom_type_symbol
_atom_type_oxidation_number
Y3+ 3
In3+ 3
O2- -2
loop_
_atom_site_label
_atom_site_type_symbol
_atom_site_symmetry_multiplicity
_atom_site_Wyckoff_symbol
_atom_site_fract_x
_atom_site_fract_y
_atom_site_fract_z
_atom_site_B_iso_or_equiv
_atom_site_occupancy
_atom_site_attached_hydrogens
Y1 Y3+ 2 a 0 0 0.2664(8) . 1. 0
Y2 Y3+ 4 b 0.3333 0.6667 0.2352(5) . 1. 0
In1 In3+ 6 c 0.3340(12) 0 0 . 1. 0
O1 O2- 6 c 0.3090(44) 0 0.1698(21) . 1. 0
O2 O2- 6 c 0.6321(56) 0 0.3303(29) 0.0191(90) 1. 0
O3 O2- 2 a 0 0 0.4861(33) 0.14(12) 1. 0
O4 O2- 4 b 0.3333 0.6667 0.0320(24) 0.0052(46) 1. 0
loop_
_atom_site_aniso_label
_atom_site_aniso_type_symbol
_atom_site_aniso_U_11
_atom_site_aniso_U_22
_atom_site_aniso_U_33
_atom_site_aniso_U_12
_atom_site_aniso_U_13
_atom_site_aniso_U_23
Y1 Y3+ 0.0056(26) 0.0056(26) 0.0076(25) 0.0028(13) 0 0
Y2 Y3+ 0.0085(16) 0.0085(16) 0.0138(23) 0.0043(8) 0 0
In1 In3+ 0.0084(13) 0.0001 0.0057(5) 0.00005(10) -.0002(4) -.0004
#End of TTdata_251-ICSD
