
#(C) 2019 by FIZ Karlsruhe - Leibniz Institute for Information Infrastructure.  All rights reserved.
data_358-ICSD
_database_code_ICSD 358
_audit_creation_date 1980-01-01
_audit_update_record 2011-08-01
_chemical_name_systematic 'Neodymium phosphide (1/5)'
_chemical_formula_structural 'Nd P5'
_chemical_formula_sum 'Nd1 P5'
_chemical_name_structure_type GdP5
_exptl_crystal_density_diffrn 3.97
_publ_section_title
'Die Pentaphosphide des Lanthans und Neodyms, La P5 und Nd P5'
loop_
_citation_id
_citation_journal_full
_citation_year
_citation_journal_volume
_citation_page_first
_citation_page_last
_citation_journal_id_ASTM
primary 'Zeitschrift fuer Anorganische und Allgemeine Chemie (1950) (DE)' 1976
419 77 86 ZAACAB
loop_
_publ_author_name
'Wichelhaus, W.'
'von Schnering, H.G.'
_cell_length_a 4.938
_cell_length_b 9.551
_cell_length_c 5.444
_cell_angle_alpha 90.
_cell_angle_beta 103.27
_cell_angle_gamma 90.
_cell_volume 249.9
_cell_formula_units_Z 2
_symmetry_space_group_name_H-M 'P 1 21/m 1'
_symmetry_Int_Tables_number 11
_refine_ls_R_factor_all 0.037
loop_
_symmetry_equiv_pos_site_id
_symmetry_equiv_pos_as_xyz
1 'x, -y+1/2, z'
2 '-x, -y, -z'
3 '-x, y+1/2, -z'
4 'x, y, z'
loop_
_atom_type_symbol
_atom_type_oxidation_number
Nd0+ 0
P0+ 0
loop_
_atom_site_label
_atom_site_type_symbol
_atom_site_symmetry_multiplicity
_atom_site_Wyckoff_symbol
_atom_site_fract_x
_atom_site_fract_y
_atom_site_fract_z
_atom_site_B_iso_or_equiv
_atom_site_occupancy
_atom_site_attached_hydrogens
Nd1 Nd0+ 2 e 0.01903(6) 0.25 0.35744(5) . 1. 0
P1 P0+ 4 f 0.3815(2) 0.5903(1) 0.0422(2) . 1. 0
P2 P0+ 4 f 0.2899(2) 0.5338(1) 0.3991(2) . 1. 0
P3 P0+ 2 e 0.2864(3) 0.25 0.9092(3) . 1. 0
loop_
_atom_site_aniso_label
_atom_site_aniso_type_symbol
_atom_site_aniso_beta_11
_atom_site_aniso_beta_22
_atom_site_aniso_beta_33
_atom_site_aniso_beta_12
_atom_site_aniso_beta_13
_atom_site_aniso_beta_23
Nd1 Nd0+ 0.645(10) 0.353(1) 0.417(10) 0 0.173(7) 0
P1 P0+ 0.523(27) 0.281(25) 0.527(26) 0.092(21) 0.132(22) 0.032(21)
P2 P0+ 0.736(29) 0.540(28) 0.755(28) -.001(24) 0.443(24) -.044(23)
P3 P0+ 0.585(39) 0.476(38) 0.655(39) 0 0.208(33) 0
#End of TTdata_358-ICSD
