
#(C) 2019 by FIZ Karlsruhe - Leibniz Institute for Information Infrastructure.  All rights reserved.
data_285-ICSD
_database_code_ICSD 285
_audit_creation_date 1980-01-01
_audit_update_record 2012-08-01
_chemical_name_systematic 'Potassium tetrafluoroaluminate'
_chemical_formula_structural 'K (Al F4)'
_chemical_formula_sum 'Al1 F4 K1'
_chemical_name_structure_type KAlF4
_exptl_crystal_density_diffrn 3.05
_publ_section_title

;
Electrical properties of undoped and doped potassium tetrafluoaluminate: K Al
F4
;
loop_
_citation_id
_citation_journal_full
_citation_year
_citation_journal_volume
_citation_page_first
_citation_page_last
_citation_journal_id_ASTM
primary 'Journal of Solid State Chemistry' 1976 16 413 422 JSSCBI
loop_
_publ_author_name
'Schoonman, J.'
'Huggins, R.'
_cell_length_a 3.55
_cell_length_b 3.55
_cell_length_c 6.138
_cell_angle_alpha 90.
_cell_angle_beta 90.
_cell_angle_gamma 90.
_cell_volume 77.35
_cell_formula_units_Z 1
_symmetry_space_group_name_H-M 'P 4/m m m'
_symmetry_Int_Tables_number 123
loop_
_symmetry_equiv_pos_site_id
_symmetry_equiv_pos_as_xyz
1 'y, x, -z'
2 '-y, -x, -z'
3 '-y, x, -z'
4 'y, -x, -z'
5 '-x, y, -z'
6 'x, -y, -z'
7 'x, y, -z'
8 '-x, -y, -z'
9 '-y, -x, z'
10 'y, x, z'
11 'y, -x, z'
12 '-y, x, z'
13 'x, -y, z'
14 '-x, y, z'
15 '-x, -y, z'
16 'x, y, z'
loop_
_atom_type_symbol
_atom_type_oxidation_number
K1+ 1
Al3+ 3
F1- -1
loop_
_atom_site_label
_atom_site_type_symbol
_atom_site_symmetry_multiplicity
_atom_site_Wyckoff_symbol
_atom_site_fract_x
_atom_site_fract_y
_atom_site_fract_z
_atom_site_B_iso_or_equiv
_atom_site_occupancy
_atom_site_attached_hydrogens
K1 K1+ 1 a 0 0 0 . 1. 0
Al1 Al3+ 1 d 0.5 0.5 0.5 . 1. 0
F1 F1- 2 e 0 0.5 0.5 . 1. 0
F2 F1- 2 h 0.5 0.5 0.21 . 1. 0
#End of TTdata_285-ICSD
