
#(C) 2019 by FIZ Karlsruhe - Leibniz Institute for Information Infrastructure.  All rights reserved.
data_349-ICSD
_database_code_ICSD 349
_audit_creation_date 1980-01-01
_audit_update_record 2011-08-01
_chemical_name_systematic 'Gallium sulfide selenide (1/0.6/0.4) - beta'
_chemical_formula_structural 'Ga (S0.59 Se0.41)'
_chemical_formula_sum 'Ga1 S0.59 Se0.41'
_chemical_name_structure_type InSe(beta)
_exptl_crystal_density_diffrn 4.39
_publ_section_title 'Atomic structure of the 2h Ga S0.59 Se0.41 beta-type'
loop_
_citation_id
_citation_journal_full
_citation_year
_citation_journal_volume
_citation_page_first
_citation_page_last
_citation_journal_id_ASTM
primary

;
Acta Crystallographica, Section B: Structural Crystallography and Crystal
Chemistry
; 1976 32 1910 1911 ACBCAR
loop_
_publ_author_name
'Kuhn, A.'
'Chevalier, R.'
'Desnoyers, C.'
'Terhell, J.'
_cell_length_a 3.660(2)
_cell_length_b 3.660(2)
_cell_length_c 15.786(4)
_cell_angle_alpha 90.
_cell_angle_beta 90.
_cell_angle_gamma 120.
_cell_volume 183.13
_cell_formula_units_Z 4
_symmetry_space_group_name_H-M 'P 63/m m c'
_symmetry_Int_Tables_number 194
_refine_ls_R_factor_all 0.065
loop_
_symmetry_equiv_pos_site_id
_symmetry_equiv_pos_as_xyz
1 'x, x-y, -z+1/2'
2 '-x+y, y, -z+1/2'
3 '-y, -x, -z+1/2'
4 '-x+y, -x, -z+1/2'
5 '-y, x-y, -z+1/2'
6 'x, y, -z+1/2'
7 '-x, -x+y, z+1/2'
8 'x-y, -y, z+1/2'
9 'y, x, z+1/2'
10 'x-y, x, z+1/2'
11 'y, -x+y, z+1/2'
12 '-x, -y, z+1/2'
13 '-x, -x+y, -z'
14 'x-y, -y, -z'
15 'y, x, -z'
16 'x-y, x, -z'
17 'y, -x+y, -z'
18 '-x, -y, -z'
19 'x, x-y, z'
20 '-x+y, y, z'
21 '-y, -x, z'
22 '-x+y, -x, z'
23 '-y, x-y, z'
24 'x, y, z'
loop_
_atom_type_symbol
_atom_type_oxidation_number
Ga0+ 0
S0+ 0
Se0+ 0
loop_
_atom_site_label
_atom_site_type_symbol
_atom_site_symmetry_multiplicity
_atom_site_Wyckoff_symbol
_atom_site_fract_x
_atom_site_fract_y
_atom_site_fract_z
_atom_site_B_iso_or_equiv
_atom_site_occupancy
_atom_site_attached_hydrogens
Ga1 Ga0+ 4 f 0.3333 0.6667 0.1725(1) . 1. 0
S1 S0+ 4 f 0.3333 0.6667 0.6004(1) . 0.59 0
Se1 Se0+ 4 f 0.3333 0.6667 0.6004(1) . 0.41 0
loop_
_atom_site_aniso_label
_atom_site_aniso_type_symbol
_atom_site_aniso_beta_11
_atom_site_aniso_beta_22
_atom_site_aniso_beta_33
_atom_site_aniso_beta_12
_atom_site_aniso_beta_13
_atom_site_aniso_beta_23
Ga1 Ga0+ 0.0136 0.0136 0.001 0.0068 0 0
S1 S0+ 0.0119 0.0119 0.0011 0.006 0 0
Se1 Se0+ 0.0119 0.0119 0.0011 0.006 0 0
#End of TTdata_349-ICSD
