
#(C) 2019 by FIZ Karlsruhe - Leibniz Institute for Information Infrastructure.  All rights reserved.
data_164-ICSD
_database_code_ICSD 164
_audit_creation_date 1980-01-01
_audit_update_record 1985-05-13
_chemical_name_systematic 'Rubidium tetrakis(thiocyanato)bismuthate(III)'
_chemical_formula_structural 'Rb (Bi (S C N)4)'
_chemical_formula_sum 'C4 Bi1 N4 Rb1 S4'
_exptl_crystal_density_diffrn 3.12
_publ_section_title
'Crystal and molecular structure of rubidium tetrathiocyanato bismuthate(III)'
loop_
_citation_id
_citation_journal_full
_citation_year
_citation_journal_volume
_citation_page_first
_citation_page_last
_citation_journal_id_ASTM
primary

;
Acta Crystallographica, Section B: Structural Crystallography and Crystal
Chemistry
; 1976 32 2319 2321 ACBCAR
loop_
_publ_author_name
'Galdecki, Z.'
'Glovka, M.L.'
'Golinski, B.'
_cell_length_a 11.24(1)
_cell_length_b 7.65(1)
_cell_length_c 6.52(1)
_cell_angle_alpha 90.
_cell_angle_beta 90.
_cell_angle_gamma 90.
_cell_volume 560.63
_cell_formula_units_Z 2
_symmetry_space_group_name_H-M 'P 21 21 2'
_symmetry_Int_Tables_number 18
_refine_ls_R_factor_all 0.076
loop_
_symmetry_equiv_pos_site_id
_symmetry_equiv_pos_as_xyz
1 '-x+1/2, y+1/2, -z'
2 'x+1/2, -y+1/2, -z'
3 '-x, -y, z'
4 'x, y, z'
loop_
_atom_type_symbol
_atom_type_oxidation_number
Bi3+ 3
Rb1+ 1
S2- -2
N3- -3
C4+ 4
loop_
_atom_site_label
_atom_site_type_symbol
_atom_site_symmetry_multiplicity
_atom_site_Wyckoff_symbol
_atom_site_fract_x
_atom_site_fract_y
_atom_site_fract_z
_atom_site_B_iso_or_equiv
_atom_site_occupancy
_atom_site_attached_hydrogens
Bi1 Bi3+ 2 a 0 0 0.0858(3) . 1. 0
Rb1 Rb1+ 2 b 0 0.5 0.6833(9) . 1. 0
S1 S2- 4 c 0.3402(9) 0.6012(13) 0.6277(19) . 1. 0
S2 S2- 4 c 0.3990(8) 0.1632(12) 0.8312(20) . 1. 0
N1 N3- 4 c 0.3908(25) 0.3637(47) 0.3069(67) . 1. 0
N2 N3- 4 c 0.1584(30) 0.2343(50) -.0775(64) . 1. 0
C1 C4+ 4 c 0.3620(24) 0.4761(51) 0.4233(68) . 1. 0
C2 C4+ 4 c 0.2552(32) 0.2032(55) -.1258(68) . 1. 0
loop_
_atom_site_aniso_label
_atom_site_aniso_type_symbol
_atom_site_aniso_U_11
_atom_site_aniso_U_22
_atom_site_aniso_U_33
_atom_site_aniso_U_12
_atom_site_aniso_U_13
_atom_site_aniso_U_23
Bi1 Bi3+ 0.021(1) 0.023(1) 0.018(1) 0.001(1) 0 0
Rb1 Rb1+ 0.052(3) 0.032(3) 0.023(3) -.005(3) 0 0
S1 S2- 0.026(5) 0.028(5) 0.016(4) 0.007(4) -.006(4) -.001(4)
S2 S2- 0.026(4) 0.022(4) 0.021(4) 0.002(3) 0.001(4) 0.002(4)
N1 N3- 0.009(12) 0.058(19) 0.041(15) 0.013(13) -.001(15) 0.031(19)
N2 N3- 0.024(15) 0.059(22) 0.069(25) 0.072(17) 0.009(17) 0.035(21)
C1 C4+ 0.007(12) 0.076(25) 0.077(25) 0.086(16) 0.014(14) 0.030(25)
C2 C4+ 0.030(19) 0.074(24) 0.058(21) -.101(20) -.035(20) 0.050(22)
#End of TTdata_164-ICSD
