
#(C) 2019 by FIZ Karlsruhe - Leibniz Institute for Information Infrastructure.  All rights reserved.
data_88-ICSD
_database_code_ICSD 88
_audit_creation_date 1980-01-01
_audit_update_record 2012-08-01
_chemical_name_systematic 'Dipotassium tecto-tritungstate'
_chemical_formula_structural 'K2 W3 O10'
_chemical_formula_sum 'K2 O10 W3'
_exptl_crystal_density_diffrn 6.14
_publ_section_title 'The crystal structure of K2 W3 O10'
loop_
_citation_id
_citation_journal_full
_citation_year
_citation_journal_volume
_citation_page_first
_citation_page_last
_citation_journal_id_ASTM
primary

;
Acta Crystallographica, Section B: Structural Crystallography and Crystal
Chemistry
; 1976 32 1522 1525 ACBCAR
loop_
_publ_author_name
'Okada, K.'
'Morikawa, H.'
'Marumo, F.'
'Iwai, S.I.'
_cell_length_a 10.947(5)
_cell_length_b 3.864(1)
_cell_length_c 31.955(8)
_cell_angle_alpha 90.
_cell_angle_beta 108.44(3)
_cell_angle_gamma 90.
_cell_volume 1282.27
_cell_formula_units_Z 6
_symmetry_space_group_name_H-M 'P 1 2/c 1'
_symmetry_Int_Tables_number 13
_refine_ls_R_factor_all 0.074
loop_
_symmetry_equiv_pos_site_id
_symmetry_equiv_pos_as_xyz
1 'x, -y, z+1/2'
2 '-x, -y, -z'
3 '-x, y, -z+1/2'
4 'x, y, z'
loop_
_atom_type_symbol
_atom_type_oxidation_number
W6+ 6
K1+ 1
O2- -2
loop_
_atom_site_label
_atom_site_type_symbol
_atom_site_symmetry_multiplicity
_atom_site_Wyckoff_symbol
_atom_site_fract_x
_atom_site_fract_y
_atom_site_fract_z
_atom_site_B_iso_or_equiv
_atom_site_occupancy
_atom_site_attached_hydrogens
W1 W6+ 4 g -.0059(1) 0.0584(5) 0.05203(4) . 1. 0
W2 W6+ 4 g 0.2945(1) -.0531(5) 0.05420(4) . 1. 0
W3 W6+ 4 g 0.3995(1) 0.0593(5) 0.34947(4) . 1. 0
W4 W6+ 4 g 0.1529(1) 0.0598(5) 0.23550(4) . 1. 0
W5 W6+ 2 f 0.5 -.0744(7) 0.25 . 1. 0
K1 K1+ 4 g 0.2845(9) 0.493(2) 0.1525(3) . 1. 0
K2 K1+ 4 g 0.1119(10) 0.537(3) 0.3451(4) . 1. 0
K3 K1+ 4 g 0.3696(33) 0.505(6) 0.4509(9) . 0.5 0
K4 K1+ 4 g 0.3143(32) 0.523(10) 0.4545(9) . 0.5 0
O1 O2- 4 g 0.1172(22) 0.018(7) 0.0090(8) 0.8 1. 0
O2 O2- 4 g 0.3857(28) -.041(10) 0.0187(10) 2. 1. 0
O3 O2- 4 g 0.1570(24) 0.012(7) 0.0900(8) 1.1 1. 0
O4 O2- 4 g 0.4163(22) 0.010(7) 0.1109(8) 0.6 1. 0
O5 O2- 4 g 0.4994(28) 0.024(9) 0.3074(9) 2. 1. 0
O6 O2- 4 g 0.3192(29) 0.021(9) 0.230(1) 2.1 1. 0
O7 O2- 4 g 0.2491(28) -.028(9) 0.3045(10) 1.8 1. 0
O8 O2- 2 e 0 0.027(13) 0.25 1.8 1. 0
O9 O2- 4 g 0.0757(26) 0.000(8) 0.1788(9) 1.8 1. 0
O10 O2- 4 g 0.1084(25) 0.027(8) 0.4170(9) 1.7 1. 0
O11 O2- 4 g 0.3338(30) 0.027(10) 0.3918(10) 2. 1. 0
O12 O2- 4 g -.0016(25) 0.527(9) 0.0470(9) 1.9 1. 0
O13 O2- 4 g 0.2820(25) 0.482(8) 0.0562(9) 1.8 1. 0
O14 O2- 4 g 0.4167(35) 0.512(12) 0.3462(12) 1.8 1. 0
O15 O2- 4 g 0.1349(30) 0.521(10) 0.2419(10) 1.9 1. 0
O16 O2- 2 f 0.5 0.490(13) 0.25 1.9 1. 0
loop_
_atom_site_aniso_label
_atom_site_aniso_type_symbol
_atom_site_aniso_beta_11
_atom_site_aniso_beta_22
_atom_site_aniso_beta_33
_atom_site_aniso_beta_12
_atom_site_aniso_beta_13
_atom_site_aniso_beta_23
W1 W6+ 0.00147(9) 0.00911(74) 0.00007(1) 0.00004(27) -.00022(2) -.00015(9)
W2 W6+ 0.00141(9) 0.00692(73) 0.00009(1) -.00026(26) -.00020(2) 0.00002(9)
W3 W6+ 0.00126(9) 0.00864(72) 0.00010(1) 0.00022(26) -.00016(3) -.00009(9)
W4 W6+ 0.00145(9) 0.01009(79) 0.00012(1) -.00021(27) -.00019(3) -.00004(9)
W5 W6+ 0.00173(13) 0.0084(11) 0.00012(2) 0 -.00008(4) 0
K1 K1+ 0.00601(75) 0.0162(68) 0.00027(7) -0.0006(15) -.00010(19) 0.00016(46)
K2 K1+ 0.00548(78) 0.0216(59) 0.00091(11) 0.0024(19) 0.00002(24) -.00026(73)
K3 K1+ 0.0163(36) 0.019(15) 0.00114(29) -0.0001(51) 0.00287(92) 0.00031(1)
K4 K1+ 0.0124(33) 0.073(27) 0.0009(3) 0.0043(81) 0.00083(83) 0.00219(22)
#End of TTdata_88-ICSD
