
#(C) 2019 by FIZ Karlsruhe - Leibniz Institute for Information Infrastructure.  All rights reserved.
data_280-ICSD
_database_code_ICSD 280
_audit_creation_date 1980-01-01
_audit_update_record 2011-08-01
_chemical_name_systematic 'Barium iron sulfide (3/1/5)'
_chemical_formula_structural 'Ba3 Fe S5'
_chemical_formula_sum 'Ba3 Fe1 S5'
_chemical_name_structure_type SrBeEu2O5
_exptl_crystal_density_diffrn 4.15
_publ_section_title

;
Ba15 Fe7 S25 and Ba3 Fe S5. Crystal structures, Moessbauer, magnetic, and
electrical behavior
;
loop_
_citation_id
_citation_journal_full
_citation_year
_citation_journal_volume
_citation_page_first
_citation_page_last
_citation_journal_id_ASTM
primary 'Journal of Solid State Chemistry' 1976 16 117 128 JSSCBI
loop_
_publ_author_name
'Lemley, J.T.'
'Jenks, J.'
'Hoggins, J.'
'Eliezer, Z.'
'Steinfink, H.'
_cell_length_a 12.405(1)
_cell_length_b 9.516(1)
_cell_length_c 8.5212(9)
_cell_angle_alpha 90.
_cell_angle_beta 90.
_cell_angle_gamma 90.
_cell_volume 1005.89
_cell_formula_units_Z 4
_symmetry_space_group_name_H-M 'P n m a'
_symmetry_Int_Tables_number 62
_refine_ls_R_factor_all 0.051
loop_
_symmetry_equiv_pos_site_id
_symmetry_equiv_pos_as_xyz
1 'x+1/2, y, -z+1/2'
2 'x, -y+1/2, z'
3 '-x+1/2, y+1/2, z+1/2'
4 '-x, -y, -z'
5 '-x+1/2, -y, z+1/2'
6 '-x, y+1/2, -z'
7 'x+1/2, -y+1/2, -z+1/2'
8 'x, y, z'
loop_
_atom_type_symbol
_atom_type_oxidation_number
Ba2+ 2
Fe4+ 4
S2- -2
loop_
_atom_site_label
_atom_site_type_symbol
_atom_site_symmetry_multiplicity
_atom_site_Wyckoff_symbol
_atom_site_fract_x
_atom_site_fract_y
_atom_site_fract_z
_atom_site_B_iso_or_equiv
_atom_site_occupancy
_atom_site_attached_hydrogens
Ba1 Ba2+ 8 d 0.1666(1) 0.0197(1) 0.0946(2) . 1. 0
Ba2 Ba2+ 4 c 0.4823(1) 0.75 0.0774(2) . 1. 0
Fe1 Fe4+ 4 c 0.1055(3) 0.75 0.8157(5) . 1. 0
S1 S2- 4 c 0.2839(6) 0.75 0.8728(9) . 1. 0
S2 S2- 8 d 0.4282(4) 0.4508(6) 0.1914(6) . 1. 0
S3 S2- 4 c 0.0077(6) 0.75 0.0389(8) . 1. 0
S4 S2- 4 c 0.2280(6) 0.75 0.3402(11) . 1. 0
loop_
_atom_site_aniso_label
_atom_site_aniso_type_symbol
_atom_site_aniso_beta_11
_atom_site_aniso_beta_22
_atom_site_aniso_beta_33
_atom_site_aniso_beta_12
_atom_site_aniso_beta_13
_atom_site_aniso_beta_23
Ba1 Ba2+ 0.0025(1) 0.0041(1) 0.0062(2) -.0004(1) -.0002(1) -.0002(1)
Ba2 Ba2+ 0.0027(1) 0.0033(2) 0.0047(2) 0 -.0004(2) 0
Fe1 Fe4+ 0.0012(3) 0.0035(5) 0.0030(6) 0 -.0003(3) 0
S1 S2- 0.0019(5) 0.0057(9) 0.0054(11) 0 -.0009(5) 0
S2 S2- 0.0026(3) 0.0040(6) 0.0062(8) 0.0001(4) 0.0002(4) 0.0002(6)
S3 S2- 0.0016(4) 0.0049(9) 0.0032(10) 0 0.0006(6) 0
S4 S2- 0.0012(5) 0.0059(10) 0.0102(14) 0 -.0003(7) 0
#End of TTdata_280-ICSD
