
#(C) 2019 by FIZ Karlsruhe - Leibniz Institute for Information Infrastructure.  All rights reserved.
data_167-ICSD
_database_code_ICSD 167
_audit_creation_date 1980-01-01
_audit_update_record 2012-08-01
_chemical_name_systematic 'Lead copper(I) pentabismuth sulfide'
_chemical_formula_structural 'Pb Cu Bi5 S9'
_chemical_formula_sum 'Bi5 Cu1 Pb1 S9'
_chemical_name_structure_type CuPbBi5S9
_chemical_name_mineral Gladite
_exptl_crystal_density_diffrn 6.91
_publ_section_title

;
Crystal structure of gladite, Pb Cu Bi5 S9, a superstructure intermediate in
the series Bi2 S3-Pb Cu Bi S3 (bismuthinite-aikinite)
;
loop_
_citation_id
_citation_journal_full
_citation_year
_citation_journal_volume
_citation_page_first
_citation_page_last
_citation_journal_id_ASTM
primary

;
Acta Crystallographica, Section B: Structural Crystallography and Crystal
Chemistry
; 1976 32 2401 2409 ACBCAR
loop_
_publ_author_name
'Kohatsu, I.'
'Wuensch, B.J.'
_cell_length_a 33.5310(60)
_cell_length_b 11.486(2)
_cell_length_c 4.003(2)
_cell_angle_alpha 90.
_cell_angle_beta 90.
_cell_angle_gamma 90.
_cell_volume 1541.7
_cell_formula_units_Z 4
_symmetry_space_group_name_H-M 'P b n m'
_symmetry_Int_Tables_number 62
_refine_ls_R_factor_all 0.137
loop_
_symmetry_equiv_pos_site_id
_symmetry_equiv_pos_as_xyz
1 '-x+1/2, y+1/2, z'
2 'x, y, -z+1/2'
3 'x+1/2, -y+1/2, z+1/2'
4 '-x, -y, -z'
5 'x+1/2, -y+1/2, -z'
6 '-x, -y, z+1/2'
7 '-x+1/2, y+1/2, -z+1/2'
8 'x, y, z'
loop_
_atom_type_symbol
_atom_type_oxidation_number
Bi3+ 3
Pb2+ 2
Cu1+ 1
S2- -2
loop_
_atom_site_label
_atom_site_type_symbol
_atom_site_symmetry_multiplicity
_atom_site_Wyckoff_symbol
_atom_site_fract_x
_atom_site_fract_y
_atom_site_fract_z
_atom_site_B_iso_or_equiv
_atom_site_occupancy
_atom_site_attached_hydrogens
Bi1 Bi3+ 4 c 0.0565(1) 0.0209(5) 0.25 . 1. 0
Bi2 Bi3+ 4 c 0.3924(2) 0.0056(5) 0.25 . 1. 0
Bi3 Bi3+ 4 c 0.7294(2) 0.0283(5) 0.25 . 1. 0
Bi4 Bi3+ 4 c 0.6550(2) 0.3542(5) 0.25 . 1. 0
Bi5 Bi3+ 4 c 0.9866(1) 0.3430(5) 0.25 . 1. 0
Pb1 Pb2+ 4 c 0.3349(2) 0.3174(5) 0.25 . 1. 0
Cu1 Cu1+ 4 c 0.2390(5) 0.2200(14) 0.25 . 1. 0
S1 S2- 4 c 0.2095(8) 0.0354(25) 0.25 . 1. 0
S2 S2- 4 c 0.5415(11) 0.0552(31) 0.25 . 1. 0
S3 S2- 4 c 0.8804(10) 0.0565(29) 0.25 . 1. 0
S4 S2- 4 c 0.1855(8) 0.3786(30) 0.25 . 1. 0
S5 S2- 4 c 0.5172(10) 0.376(3) 0.25 . 1. 0
S6 S2- 4 c 0.8511(11) 0.3917(34) 0.25 . 1. 0
S7 S2- 4 c 0.1006(7) 0.2158(21) 0.25 . 1. 0
S8 S2- 4 c 0.4344(11) 0.2038(34) 0.25 . 1. 0
S9 S2- 4 c 0.7669(11) 0.2290(34) 0.25 . 1. 0
loop_
_atom_site_aniso_label
_atom_site_aniso_type_symbol
_atom_site_aniso_beta_11
_atom_site_aniso_beta_22
_atom_site_aniso_beta_33
_atom_site_aniso_beta_12
_atom_site_aniso_beta_13
_atom_site_aniso_beta_23
Bi1 Bi3+ 0.00025(4) 0.0020(3) 0.011(4) 0.00010(8) 0 0
Bi2 Bi3+ 0.00030(3) 0.0027(3) 0.016(4) 0.00007(10) 0 0
Bi3 Bi3+ 0.00045(5) 0.0016(3) 0.010(3) -.00005(9) 0 0
Bi4 Bi3+ 0.00034(4) 0.0033(4) 0.019(4) 0.00002(11) 0 0
Bi5 Bi3+ 0.00019(4) 0.0025(3) 0.019(3) 0.00002(9) 0 0
Pb1 Pb2+ 0.00020(4) 0.0028(3) 0.020(3) -.00022(10) 0 0
Cu1 Cu1+ 0.00012(13) 0.0005(9) 0.006(11) 0.00002(29) 0 0
S1 S2- 0.00019(24) 0.0014(17) 0.01(2) -.00011(53) 0 0
S2 S2- 0.00041(33) 0.0031(25) 0.030(32) -.00008(66) 0 0
S3 S2- 0.00022(26) 0.0027(22) 0.020(25) 0.00007(54) 0 0
S4 S2- 0.00008(21) 0.0011(15) 0.011(19) 0.00004(44) 0 0
S5 S2- 0.00026(27) 0.0028(21) 0.022(27) 0.00004(60) 0 0
S6 S2- 0.00046(35) 0.0035(25) 0.02(3) -.00016(71) 0 0
S7 S2- 0.00011(19) 0.0005(14) 0.001(16) -.00004(38) 0 0
S8 S2- 0.00039(32) 0.0034(25) 0.039(37) -.00006(70) 0 0
S9 S2- 0.00045(36) 0.0037(26) 0.028(32) 0.00006(73) 0 0
#End of TTdata_167-ICSD
