
#(C) 2019 by FIZ Karlsruhe - Leibniz Institute for Information Infrastructure.  All rights reserved.
data_193-ICSD
_database_code_ICSD 193
_audit_creation_date 1980-01-01
_audit_update_record 2007-08-01
_chemical_name_systematic 'Calcium arsenide (1/3)'
_chemical_formula_structural 'Ca As3'
_chemical_formula_sum 'As3 Ca1'
_chemical_name_structure_type CaP3
_exptl_crystal_density_diffrn 4.81
_publ_section_title
'Preparation et etude structurale d'un triarseniure de calcium: Ca As3'
loop_
_citation_id
_citation_journal_full
_citation_year
_citation_journal_volume
_citation_page_first
_citation_page_last
_citation_journal_id_ASTM
primary 'Journal of Solid State Chemistry' 1976 17 393 397 JSSCBI
loop_
_publ_author_name
'Brice, J.F.'
'Courtois, A.'
'Protas, J.'
'Aubry, J.'
_cell_length_a 5.854(5)
_cell_length_b 5.832(5)
_cell_length_c 5.901(5)
_cell_angle_alpha 70.21(1)
_cell_angle_beta 80.3(1)
_cell_angle_gamma 75.7(1)
_cell_volume 182.89
_cell_formula_units_Z 2
_symmetry_space_group_name_H-M 'P -1'
_symmetry_Int_Tables_number 2
_refine_ls_R_factor_all 0.13
loop_
_symmetry_equiv_pos_site_id
_symmetry_equiv_pos_as_xyz
1 '-x, -y, -z'
2 'x, y, z'
loop_
_atom_type_symbol
_atom_type_oxidation_number
Ca0+ 0
As0+ 0
loop_
_atom_site_label
_atom_site_type_symbol
_atom_site_symmetry_multiplicity
_atom_site_Wyckoff_symbol
_atom_site_fract_x
_atom_site_fract_y
_atom_site_fract_z
_atom_site_B_iso_or_equiv
_atom_site_occupancy
_atom_site_attached_hydrogens
Ca1 Ca0+ 2 i 0.301(7) 0.378(8) 0.369(8) . 1. 0
As1 As0+ 2 i 0.003(2) 0.200(3) 0.996(3) . 1. 0
As2 As0+ 2 i 0.138(3) 0.814(4) 0.583(5) . 1. 0
As3 As0+ 2 i 0.407(3) 0.206(4) 0.909(5) . 1. 0
#End of TTdata_193-ICSD
