
#(C) 2019 by FIZ Karlsruhe - Leibniz Institute for Information Infrastructure.  All rights reserved.
data_303-ICSD
_database_code_ICSD 303
_audit_creation_date 1980-01-01
_audit_update_record 2015-02-01
_chemical_name_systematic 'Triiron(III) trihydroxide bis(phosphate(V))'
_chemical_formula_structural 'Fe3 (O H)3 (P O4)2'
_chemical_formula_sum 'H3 Fe3 O11 P2'
_chemical_name_structure_type Fe3(PO4)2(H2O)3
_chemical_name_mineral Kryzhanovskite
_exptl_crystal_density_diffrn 3.64
_publ_section_title

;
A mixed-valence solid-solution series' crystal structures of phosphoferrite,
Fe(II)3 (H2 O)3 (P O4)2, and Kryshanovskite, Fe(III)3 (O H)3 (P O4)2
;
loop_
_citation_id
_citation_journal_full
_citation_year
_citation_journal_volume
_citation_page_first
_citation_page_last
_citation_journal_id_ASTM
primary 'Inorganic Chemistry' 1976 15 316 321 INOCAJ
loop_
_publ_author_name
'Moore, P.B.'
'Araki, T.'
_cell_length_a 9.518(4)
_cell_length_b 9.749(4)
_cell_length_c 8.031(3)
_cell_angle_alpha 90.
_cell_angle_beta 90.
_cell_angle_gamma 90.
_cell_volume 745.2
_cell_formula_units_Z 4
_symmetry_space_group_name_H-M 'P b n a'
_symmetry_Int_Tables_number 60
_refine_ls_R_factor_all 0.036
loop_
_symmetry_equiv_pos_site_id
_symmetry_equiv_pos_as_xyz
1 '-x, y+1/2, z'
2 'x+1/2, y, -z+1/2'
3 'x+1/2, -y+1/2, z+1/2'
4 '-x, -y, -z'
5 'x, -y+1/2, -z'
6 '-x+1/2, -y, z+1/2'
7 '-x+1/2, y+1/2, -z+1/2'
8 'x, y, z'
loop_
_atom_type_symbol
_atom_type_oxidation_number
Fe3+ 3
P5+ 5
O2- -2
H1+ 1
loop_
_atom_site_label
_atom_site_type_symbol
_atom_site_symmetry_multiplicity
_atom_site_Wyckoff_symbol
_atom_site_fract_x
_atom_site_fract_y
_atom_site_fract_z
_atom_site_B_iso_or_equiv
_atom_site_occupancy
_atom_site_attached_hydrogens
Fe1 Fe3+ 4 a 0 0 0 . 1. 0
Fe2 Fe3+ 8 d 0.04838(4) 0.11378(4) 0.63693(5) . 1. 0
P1 P5+ 8 d 0.20925(7) 0.10570(9) 0.28596(9) . 1. 0
O1 O2- 8 d 0.21008(20) 0.25961(20) 0.33188(29) . 1. 0
O2 O2- 8 d 0.11247(21) 0.02965(21) 0.41434(26) . 1. 0
O3 O2- 8 d 0.35969(21) 0.04537(21) 0.29859(27) . 1. 0
O4 O2- 8 d 0.15816(22) 0.08792(23) 0.10917(27) . 1. 0
O5 O2- 4 c -.05246(31) 0.25 0.5 . 1. 0
O6 O2- 8 d -.02974(23) 0.34471(23) 0.15037(26) . 1. 0
H1 H1+ 4 c -.163 0.25 0.5 0.93 1. 0
H2 H1+ 8 d -.131 0.311 0.158 0.78 1. 0
loop_
_atom_site_aniso_label
_atom_site_aniso_type_symbol
_atom_site_aniso_beta_11
_atom_site_aniso_beta_22
_atom_site_aniso_beta_33
_atom_site_aniso_beta_12
_atom_site_aniso_beta_13
_atom_site_aniso_beta_23
Fe1 Fe3+ 0.00059(6) 0.00247(6) 0.00378(9) -.00013(4) -.00048(5) 0.00035(5)
Fe2 Fe3+ 0.00078(5) 0.00212(5) 0.00376(7) 0.00035(2) 0.00021(2) 0.00025(3)
P1 P5+ 0.00036(6) 0.00179(6) 0.00335(10) 0.00003(4) -.00001(4) 0.00006(5)
O1 O2- 0.00026(15) 0.00159(15) 0.00555(29) 0.00022(13) -.00001(15) 0.00049(17)
O2 O2- 0.00070(18) 0.00213(17) 0.00389(26) -.00034(14) -.00054(17) 0.00010(17)
O3 O2- 0.00043(16) 0.00266(17) 0.00428(29) 0.00037(14) 0.00004(18) -.00013(18)
O4 O2- 0.00093(18) 0.00345(18) 0.00364(28) -.00032(15) -.00061(18) -.00025(18)
O5 O2- 0.00118(11) 0.00282(10) 0.00501(14) 0.00000(9) 0.0000(1) -.00056(9)
O6 O2- 0.00088(17) 0.00259(18) 0.00405(27) -.00035(14) -.00043(17) 0.00013(18)
#End of TTdata_303-ICSD
