
#(C) 2019 by FIZ Karlsruhe - Leibniz Institute for Information Infrastructure.  All rights reserved.
data_115-ICSD
_database_code_ICSD 115
_audit_creation_date 1980-01-01
_audit_update_record 2000-07-15
_chemical_name_systematic 'Tribarium dicopper tetraoxide dichloride'
_chemical_formula_structural 'Ba3 Cu2 O4 Cl2'
_chemical_formula_sum 'Ba3 Cl2 Cu2 O4'
_exptl_crystal_density_diffrn 5.39
_publ_section_title 'Zur Kenntnis von Ba3 Cu2 O4 Cl2'
loop_
_citation_id
_citation_journal_full
_citation_year
_citation_journal_volume
_citation_page_first
_citation_page_last
_citation_journal_id_ASTM
primary 'Zeitschrift fuer Anorganische und Allgemeine Chemie (1950) (DE)' 1976
422 231 236 ZAACAB
loop_
_publ_author_name
'Kipka, R.'
'Mueller Buschbaum, H.'
_cell_length_a 6.553
_cell_length_b 6.
_cell_length_c 10.563
_cell_angle_alpha 90.
_cell_angle_beta 90.
_cell_angle_gamma 90.
_cell_volume 415.32
_cell_formula_units_Z 2
_symmetry_space_group_name_H-M 'P m m a'
_symmetry_Int_Tables_number 51
_refine_ls_R_factor_all 0.086
loop_
_symmetry_equiv_pos_site_id
_symmetry_equiv_pos_as_xyz
1 '-x+1/2, -y, z'
2 'x+1/2, -y, -z'
3 'x, -y, z'
4 '-x, -y, -z'
5 'x+1/2, y, -z'
6 '-x+1/2, y, z'
7 '-x, y, -z'
8 'x, y, z'
loop_
_atom_type_symbol
_atom_type_oxidation_number
Ba2+ 2
Cu2+ 2
Cl1- -1
O2- -2
loop_
_atom_site_label
_atom_site_type_symbol
_atom_site_symmetry_multiplicity
_atom_site_Wyckoff_symbol
_atom_site_fract_x
_atom_site_fract_y
_atom_site_fract_z
_atom_site_B_iso_or_equiv
_atom_site_occupancy
_atom_site_attached_hydrogens
Ba1 Ba2+ 2 f 0.25 0.5 0.445 0.56 1. 0
Ba2 Ba2+ 2 e 0.25 0 0.211 0.63 1. 0
Ba3 Ba2+ 2 f 0.75 0.5 0.204 0.7 1. 0
Cu1 Cu2+ 2 c 0 0 0.5 0.38 1. 0
Cu2 Cu2+ 2 e 0.75 0 0.33 0.43 1. 0
Cl1 Cl1- 2 e 0.75 0 0.087 1.37 1. 0
Cl2 Cl1- 2 f 0.25 0.5 0.115 1.3 1. 0
O1 O2- 8 l 0.969 0.22 0.362 0.25 1. 0
#End of TTdata_115-ICSD
