
#(C) 2019 by FIZ Karlsruhe - Leibniz Institute for Information Infrastructure.  All rights reserved.
data_190-ICSD
_database_code_ICSD 190
_audit_creation_date 1980-01-01
_audit_update_record 2009-08-01
_chemical_name_systematic 'Niobium zirconium oxide fluoride (0.55/0.45/1.1/1.8)'
_chemical_formula_structural '(Nb0.55 Zr0.45) (O1.1 F1.8)'
_chemical_formula_sum 'F1.8 Nb0.55 O1.1 Zr0.45'
_exptl_crystal_density_diffrn 3.91
_publ_section_title

;
A structural study of a nonstoichiometric niobium-zirconium oxyfluoride with
the Re O3 type structure
;
loop_
_citation_id
_citation_journal_full
_citation_year
_citation_journal_volume
_citation_page_first
_citation_page_last
_citation_journal_id_ASTM
primary 'Journal of Solid State Chemistry' 1976 17 331 337 JSSCBI
loop_
_publ_author_name
'Poulain, M.'
'Lucas, J.'
'Tilley, R.J.D.'
_cell_length_a 3.94
_cell_length_b 3.94
_cell_length_c 3.94
_cell_angle_alpha 90.
_cell_angle_beta 90.
_cell_angle_gamma 90.
_cell_volume 61.16
_cell_formula_units_Z 1
_symmetry_space_group_name_H-M 'P m -3 m'
_symmetry_Int_Tables_number 221
_refine_ls_R_factor_all 0.026
loop_
_symmetry_equiv_pos_site_id
_symmetry_equiv_pos_as_xyz
1 'z, y, -x'
2 'y, x, -z'
3 'x, z, -y'
4 'z, x, -y'
5 'y, z, -x'
6 'x, y, -z'
7 'z, -y, x'
8 'y, -x, z'
9 'x, -z, y'
10 'z, -x, y'
11 'y, -z, x'
12 'x, -y, z'
13 '-z, y, x'
14 '-y, x, z'
15 '-x, z, y'
16 '-z, x, y'
17 '-y, z, x'
18 '-x, y, z'
19 '-z, -y, -x'
20 '-y, -x, -z'
21 '-x, -z, -y'
22 '-z, -x, -y'
23 '-y, -z, -x'
24 '-x, -y, -z'
25 '-z, -y, x'
26 '-y, -x, z'
27 '-x, -z, y'
28 '-z, -x, y'
29 '-y, -z, x'
30 '-x, -y, z'
31 '-z, y, -x'
32 '-y, x, -z'
33 '-x, z, -y'
34 '-z, x, -y'
35 '-y, z, -x'
36 '-x, y, -z'
37 'z, -y, -x'
38 'y, -x, -z'
39 'x, -z, -y'
40 'z, -x, -y'
41 'y, -z, -x'
42 'x, -y, -z'
43 'z, y, x'
44 'y, x, z'
45 'x, z, y'
46 'z, x, y'
47 'y, z, x'
48 'x, y, z'
loop_
_atom_type_symbol
_atom_type_oxidation_number
Nb4+ 4
Zr4+ 4
Nb4+ 4
Zr4+ 4
O2- -2
F1- -1
O2- -2
F1- -1
loop_
_atom_site_label
_atom_site_type_symbol
_atom_site_symmetry_multiplicity
_atom_site_Wyckoff_symbol
_atom_site_fract_x
_atom_site_fract_y
_atom_site_fract_z
_atom_site_B_iso_or_equiv
_atom_site_occupancy
_atom_site_attached_hydrogens
Nb1 Nb4+ 1 a 0 0 0 1.61 0.22 0
Zr1 Zr4+ 1 a 0 0 0 1.61 0.18 0
Nb2 Nb4+ 8 g 0.029(2) 0.029(2) 0.029(2) 1.04 0.041 0
Zr2 Zr4+ 8 g 0.029(2) 0.029(2) 0.029(2) 1.04 0.034 0
O1 O2- 3 d 0.5 0 0 0.69 0.0733 0
F1 F1- 3 d 0.5 0 0 0.69 0.12 0
O2 O2- 12 j 0.5 0.050(2) 0.050(2) 0.9 0.0733 0
F2 F1- 12 j 0.5 0.050(2) 0.050(2) 0.9 0.12 0
#End of TTdata_190-ICSD
