
#(C) 2019 by FIZ Karlsruhe - Leibniz Institute for Information Infrastructure.  All rights reserved.
data_332-ICSD
_database_code_ICSD 332
_audit_creation_date 1980-01-01
_audit_update_record 2013-02-01
_chemical_name_systematic 'Diiron(II) tetrathiosilicate'
_chemical_formula_structural 'Fe2 (Si S4)'
_chemical_formula_sum 'Fe2 S4 Si1'
_chemical_name_structure_type Olivine-Mg2SiO4
_exptl_crystal_density_diffrn 3.43
_publ_section_title

;
Polyhedral deformations in olivine-type compounds and the crystal structure of
Fe2 Si S4 and Fe2 Ge S4
;
loop_
_citation_id
_citation_journal_full
_citation_year
_citation_journal_volume
_citation_page_first
_citation_page_last
_citation_journal_id_ASTM
primary

;
Acta Crystallographica, Section B: Structural Crystallography and Crystal
Chemistry
; 1976 32 1749 1755 ACBCAR
loop_
_publ_author_name
'Vincent, H.'
'Bertaut, E.'
_cell_length_a 12.407(2)
_cell_length_b 7.198(1)
_cell_length_c 5.812(1)
_cell_angle_alpha 90.
_cell_angle_beta 90.
_cell_angle_gamma 90.
_cell_volume 519.04
_cell_formula_units_Z 4
_symmetry_space_group_name_H-M 'P n m a'
_symmetry_Int_Tables_number 62
_refine_ls_R_factor_all 0.032
loop_
_symmetry_equiv_pos_site_id
_symmetry_equiv_pos_as_xyz
1 'x+1/2, y, -z+1/2'
2 'x, -y+1/2, z'
3 '-x+1/2, y+1/2, z+1/2'
4 '-x, -y, -z'
5 '-x+1/2, -y, z+1/2'
6 '-x, y+1/2, -z'
7 'x+1/2, -y+1/2, -z+1/2'
8 'x, y, z'
loop_
_atom_type_symbol
_atom_type_oxidation_number
S2- -2
Si4+ 4
Fe2+ 2
loop_
_atom_site_label
_atom_site_type_symbol
_atom_site_symmetry_multiplicity
_atom_site_Wyckoff_symbol
_atom_site_fract_x
_atom_site_fract_y
_atom_site_fract_z
_atom_site_B_iso_or_equiv
_atom_site_occupancy
_atom_site_attached_hydrogens
S1 S2- 4 c 0.4079 0.25 0.7284 . 1. 0
S2 S2- 4 c 0.5692 0.25 0.2383 . 1. 0
S3 S2- 8 d 0.3335 0.0173 0.2487 . 1. 0
Si1 Si4+ 4 c 0.4111 0.25 0.0916 . 1. 0
Fe1 Fe2+ 4 a 0 0 0 . 1. 0
Fe2 Fe2+ 4 c 0.2299 0.25 0.5098 . 1. 0
loop_
_atom_site_aniso_label
_atom_site_aniso_type_symbol
_atom_site_aniso_beta_11
_atom_site_aniso_beta_22
_atom_site_aniso_beta_33
_atom_site_aniso_beta_12
_atom_site_aniso_beta_13
_atom_site_aniso_beta_23
S1 S2- 0.0105(7) 0.0118(8) 0.0072(7) 0 0.0004(7) 0
S2 S2- 0.0071(6) 0.0118(7) 0.0096(7) 0 -.0010(6) 0
S3 S2- 0.0094(5) 0.0108(5) 0.0092(5) -.0018(4) 0.0005(4) 0.0001(4)
Si1 Si4+ 0.0064(7) 0.0086(8) 0.0055(8) 0 -.0005(8) 0
Fe1 Fe2+ 0.0107(5) 0.0123(5) 0.0109(5) -.0002(4) -.0005(4) -.0013(4)
Fe2 Fe2+ 0.0092(5) 0.0122(5) 0.0104(5) 0 0.0000(4) 0
#End of TTdata_332-ICSD
