
#(C) 2019 by FIZ Karlsruhe - Leibniz Institute for Information Infrastructure.  All rights reserved.
data_171-ICSD
_database_code_ICSD 171
_audit_creation_date 1986-08-04
_audit_update_record 2012-02-01
_chemical_name_systematic 'Diiron phosphate(V) chloride'
_chemical_formula_structural 'Fe2 (P O4) Cl'
_chemical_formula_sum 'Cl1 Fe2 O4 P1'
_chemical_name_structure_type Fe2PO4Cl
_exptl_crystal_density_diffrn 3.71
_publ_section_title

;
Unique face-sharing octahedral chains in ferrous chlorophosphate, Fe2 (P O4)
Cl
;
loop_
_citation_id
_citation_journal_full
_citation_year
_citation_journal_volume
_citation_page_first
_citation_page_last
_citation_journal_id_ASTM
primary

;
Acta Crystallographica, Section B: Structural Crystallography and Crystal
Chemistry
; 1976 32 2427 2431 ACBCAR
loop_
_publ_author_name
'Anderson, J.B.'
'Rea, J.R.'
'Kostiner, E.'
_cell_length_a 13.677(1)
_cell_length_b 9.217(1)
_cell_length_c 9.326(1)
_cell_angle_alpha 90.
_cell_angle_beta 132.53(1)
_cell_angle_gamma 90.
_cell_volume 866.36
_cell_formula_units_Z 8
_symmetry_space_group_name_H-M 'C 1 2/c 1'
_symmetry_Int_Tables_number 15
_refine_ls_R_factor_all 0.047
loop_
_symmetry_equiv_pos_site_id
_symmetry_equiv_pos_as_xyz
1 'x, -y, z+1/2'
2 '-x, -y, -z'
3 '-x, y, -z+1/2'
4 'x, y, z'
5 'x+1/2, -y+1/2, z+1/2'
6 '-x+1/2, -y+1/2, -z'
7 '-x+1/2, y+1/2, -z+1/2'
8 'x+1/2, y+1/2, z'
loop_
_atom_type_symbol
_atom_type_oxidation_number
Fe2+ 2
P5+ 5
O2- -2
Cl1- -1
loop_
_atom_site_label
_atom_site_type_symbol
_atom_site_symmetry_multiplicity
_atom_site_Wyckoff_symbol
_atom_site_fract_x
_atom_site_fract_y
_atom_site_fract_z
_atom_site_B_iso_or_equiv
_atom_site_occupancy
_atom_site_attached_hydrogens
Fe1 Fe2+ 8 f 0.31224(5) 0.24150(6) 0.32351(8) . 1. 0
Fe2 Fe2+ 4 e 0.5 0.21695(9) 0.25 . 1. 0
Fe3 Fe2+ 4 a 0 0 0 . 1. 0
P1 P5+ 8 f 0.26997(9) 0.4892(1) 0.0178(1) . 1. 0
O1 O2- 8 f 0.3724(3) 0.3999(3) 0.2104(4) . 1. 0
O2 O2- 8 f 0.3017(3) 0.0958(3) 0.4607(5) . 1. 0
O3 O2- 8 f 0.3294(3) 0.1149(3) 0.1512(4) . 1. 0
O4 O2- 8 f 0.3504(3) 0.4349(3) 0.4780(4) . 1. 0
Cl1 Cl1- 8 f 0.07029(9) 0.2727(1) 0.0752(1) . 1. 0
loop_
_atom_site_aniso_label
_atom_site_aniso_type_symbol
_atom_site_aniso_B_11
_atom_site_aniso_B_22
_atom_site_aniso_B_33
_atom_site_aniso_B_12
_atom_site_aniso_B_13
_atom_site_aniso_B_23
Fe1 Fe2+ 0.60(2) 0.76(2) 0.62(2) -.10(1) 0.39(2) -.06(1)
Fe2 Fe2+ 0.45(3) 1.31(3) 0.54(3) 0 0.28(2) 0
Fe3 Fe2+ 0.56(3) 0.93(3) 0.75(3) 0 0.42(2) 0
P1 P5+ 0.43(3) 0.65(3) 0.43(3) -.06(2) 0.26(3) -.04(2)
O1 O2- 0.63(8) 1.00(8) 0.42(8) -.08(7) 0.25(7) -.04(6)
O2 O2- 0.98(9) 1.38(10) 1.17(10) -.11(8) 0.75(9) -.04(8)
O3 O2- 0.46(8) 1.12(8) 0.63(8) -.15(6) 0.30(7) -.11(7)
O4 O2- 0.55(8) 0.80(8) 0.89(9) -.03(6) 0.50(7) -.16(7)
Cl1 Cl1- 0.58(3) 1.19(3) 0.64(3) -.04(3) 0.30(3) -.06(2)
#End of TTdata_171-ICSD
