
#(C) 2019 by FIZ Karlsruhe - Leibniz Institute for Information Infrastructure.  All rights reserved.
data_90-ICSD
_database_code_ICSD 90
_audit_creation_date 1980-01-01
_audit_update_record 2011-08-01
_chemical_name_systematic 'Tricadmium cyclo-triphosphate(V) tetradecahydrate'
_chemical_formula_structural 'Cd3 (P3 O9)2 (H2 O)14'
_chemical_formula_sum 'H28 Cd3 O32 P6'
_chemical_name_structure_type Cd3(P3O9)2(H2O)14
_exptl_crystal_density_diffrn 2.51
_cell_measurement_temperature 93.
_publ_section_title

;
Etude a basse temperature du trimetaphosphate de cadmium tetradeca-hydrate Cd3
(P3 O9)2 (H2 O)14
;
loop_
_citation_id
_citation_journal_full
_citation_year
_citation_journal_volume
_citation_page_first
_citation_page_last
_citation_journal_id_ASTM
primary

;
Acta Crystallographica, Section B: Structural Crystallography and Crystal
Chemistry
; 1976 32 1533 1535 ACBCAR
loop_
_publ_author_name
'Averbuch-Pouchot, M.T.'
'Durif, A.'
'Guitel, J.C.'
_cell_length_a 12.197(2)
_cell_length_b 12.197(2)
_cell_length_c 5.470(1)
_cell_angle_alpha 90.
_cell_angle_beta 90.
_cell_angle_gamma 120.
_cell_volume 704.73
_cell_formula_units_Z 1
_symmetry_space_group_name_H-M 'P -3'
_symmetry_Int_Tables_number 147
_refine_ls_R_factor_all 0.039
loop_
_symmetry_equiv_pos_site_id
_symmetry_equiv_pos_as_xyz
1 'x-y, x, -z'
2 'y, -x+y, -z'
3 '-x, -y, -z'
4 '-x+y, -x, z'
5 '-y, x-y, z'
6 'x, y, z'
loop_
_atom_type_symbol
_atom_type_oxidation_number
Cd2+ 2
P5+ 5
O2- -2
H1+ 1
O2- -2
loop_
_atom_site_label
_atom_site_type_symbol
_atom_site_symmetry_multiplicity
_atom_site_Wyckoff_symbol
_atom_site_fract_x
_atom_site_fract_y
_atom_site_fract_z
_atom_site_B_iso_or_equiv
_atom_site_occupancy
_atom_site_attached_hydrogens
Cd1 Cd2+ 3 e 0.5 0.5 0 . 1. 0
P1 P5+ 6 g 0.54076(6) 0.35413(6) 0.48836(15) . 1. 0
O1 O2- 6 g 0.5405(2) 0.2251(2) 0.5383(5) . 1. 0
O2 O2- 6 g 0.6469(2) 0.1596(2) 0.2180(5) . 1. 0
O3 O2- 6 g 0.0896(2) 0.4601(2) 0.3326(5) . 1. 0
O4 O2- 6 g 0.8985(2) 0.2803(2) -.0072(5) . 1. 0
O5 O2- 6 g 0.2445(3) 0.0386(3) 0.5309(8) . 1. 0
loop_
_atom_site_aniso_label
_atom_site_aniso_type_symbol
_atom_site_aniso_beta_11
_atom_site_aniso_beta_22
_atom_site_aniso_beta_33
_atom_site_aniso_beta_12
_atom_site_aniso_beta_13
_atom_site_aniso_beta_23
Cd1 Cd2+ 0.00117(2) 0.00097(2) 0.00286(10) 0.00071(1) -.00014(2) 0.00001(2)
P1 P5+ 0.00080(4) 0.00074(4) 0.00543(23) 0.00052(4) 0.00024(7) 0.00006(7)
O1 O2- 0.00145(15) 0.00121(14) 0.01752(97) 0.00076(12) 0.00006(28) 0.00028(27)
O2 O2- 0.00265(17) 0.00210(16) 0.00689(67) 0.00090(13) -.00005(26) -.00047(26)
O3 O2- 0.00229(17) 0.00240(17) 0.00815(74) 0.00091(13) -.00061(26) -.00024(26)
O4 O2- 0.00171(15) 0.00137(14) 0.00937(72) 0.00048(12) 0.00001(25) 0.00025(24)
O5 O2- 0.00272(20) 0.00305(20) 0.0352(16) 0.00173(17) -.00086(42) -.00152(43)
#End of TTdata_90-ICSD
