
#(C) 2019 by FIZ Karlsruhe - Leibniz Institute for Information Infrastructure.  All rights reserved.
data_304-ICSD
_database_code_ICSD 304
_audit_creation_date 1980-01-01
_audit_update_record 2009-08-01
_chemical_name_systematic 'Ammonium phyllo-fluorohexaoxotrivanadate'
_chemical_formula_structural '(N H4) (V3 O6 F)'
_chemical_formula_sum 'H4 F1 N1 O6 V3'
_exptl_crystal_density_diffrn 3.39
_publ_section_title
'Preparation, crystal structure, and properties of N H4 V3 O6 F'
loop_
_citation_id
_citation_journal_full
_citation_year
_citation_journal_volume
_citation_page_first
_citation_page_last
_citation_journal_id_ASTM
primary 'Inorganic Chemistry' 1976 15 330 334 INOCAJ
loop_
_publ_author_name
'Pintchovski, F.'
'Soled, S.'
'Wold, A.'
_cell_length_a 8.251(4)
_cell_length_b 4.939(1)
_cell_length_c 6.986(1)
_cell_angle_alpha 90.
_cell_angle_beta 100.5(3)
_cell_angle_gamma 90.
_cell_volume 279.92
_cell_formula_units_Z 2
_symmetry_space_group_name_H-M 'P 1 2/c 1'
_symmetry_Int_Tables_number 13
_refine_ls_R_factor_all 0.056
loop_
_symmetry_equiv_pos_site_id
_symmetry_equiv_pos_as_xyz
1 'x, -y, z+1/2'
2 '-x, -y, -z'
3 '-x, y, -z+1/2'
4 'x, y, z'
loop_
_atom_type_symbol
_atom_type_oxidation_number
V4+ 4
O2- -2
N3- -3
H1+ 1
F1- -1
loop_
_atom_site_label
_atom_site_type_symbol
_atom_site_symmetry_multiplicity
_atom_site_Wyckoff_symbol
_atom_site_fract_x
_atom_site_fract_y
_atom_site_fract_z
_atom_site_B_iso_or_equiv
_atom_site_occupancy
_atom_site_attached_hydrogens
V1 V4+ 4 g 0.0253(3) 0.0095(12) 0.0007(5) 0.47 0.5 0
V2 V4+ 4 g -.1617(2) 0.4870(4) 0.1228(2) 0.47 1. 0
O1 O2- 4 g 0.2061(7) 0.1596(11) -.0107(7) 0.36 1. 0
O2 O2- 4 g 0.1018(7) 0.6636(12) 0.1176(8) 0.49 1. 0
O3 O2- 2 e 0 0.1955(17) 0.25 0.44 0.24 0
O4 O2- 4 g 0.3456(8) 0.3692(13) 0.3810(9) 0.96 1. 0
N1 N3- 2 f 0.5 0.8899(24) 0.25 1.1 1. 0
#End of TTdata_304-ICSD
