
#(C) 2019 by FIZ Karlsruhe - Leibniz Institute for Information Infrastructure.  All rights reserved.
data_343-ICSD
_database_code_ICSD 343
_audit_creation_date 1980-01-01
_audit_update_record 2012-02-01
_chemical_name_systematic 'Dithallium heptamolybdate'
_chemical_formula_structural 'Tl2 (Mo7 O22)'
_chemical_formula_sum 'Mo7 O22 Tl2'
_chemical_name_structure_type Tl2Mo7O22
_exptl_crystal_density_diffrn 5.28
_publ_section_title
'Structure cristalline de l'heptamolybdate de thallium(I), Tl2 Mo7 O22'
loop_
_citation_id
_citation_journal_full
_citation_year
_citation_journal_volume
_citation_page_first
_citation_page_last
_citation_journal_id_ASTM
primary

;
Acta Crystallographica, Section B: Structural Crystallography and Crystal
Chemistry
; 1976 32 1859 1863 ACBCAR
loop_
_publ_author_name
'Toledano, P.'
'Touboul, M.'
'Herpin, P.'
_cell_length_a 20.512(6)
_cell_length_b 5.526(2)
_cell_length_c 19.460(6)
_cell_angle_alpha 90.
_cell_angle_beta 125.20(3)
_cell_angle_gamma 90.
_cell_volume 1802.44
_cell_formula_units_Z 4
_symmetry_space_group_name_H-M 'C 1 2/c 1'
_symmetry_Int_Tables_number 15
_refine_ls_R_factor_all 0.035
loop_
_symmetry_equiv_pos_site_id
_symmetry_equiv_pos_as_xyz
1 'x, -y, z+1/2'
2 '-x, -y, -z'
3 '-x, y, -z+1/2'
4 'x, y, z'
5 'x+1/2, -y+1/2, z+1/2'
6 '-x+1/2, -y+1/2, -z'
7 '-x+1/2, y+1/2, -z+1/2'
8 'x+1/2, y+1/2, z'
loop_
_atom_type_symbol
_atom_type_oxidation_number
Tl1+ 1
Mo6+ 6
O2- -2
loop_
_atom_site_label
_atom_site_type_symbol
_atom_site_symmetry_multiplicity
_atom_site_Wyckoff_symbol
_atom_site_fract_x
_atom_site_fract_y
_atom_site_fract_z
_atom_site_B_iso_or_equiv
_atom_site_occupancy
_atom_site_attached_hydrogens
Tl1 Tl1+ 8 f 0.27247(3) 0.0502(1) 0.16798(3) . 1. 0
Mo1 Mo6+ 4 e 0.5 0.1375(2) 0.25 . 1. 0
Mo2 Mo6+ 8 f 0.40811(5) 0.0553(1) 0.47511(4) . 1. 0
Mo3 Mo6+ 8 f 0.37320(5) 0.5 0.09347(4) . 1. 0
Mo4 Mo6+ 8 f 0.05325(5) 0.1061(1) 0.13779(4) . 1. 0
O1 O2- 8 f 0.3140(4) 0.088(1) 0.3882(4) . 1. 0
O2 O2- 8 f 0.1496(3) 0.156(1) 0.2199(4) . 1. 0
O3 O2- 8 f 0.0779(3) 0.175(1) 0.4549(3) . 1. 0
O4 O2- 8 f 0.3995(4) 0.177(1) 0.0266(4) . 1. 0
O5 O2- 8 f 0.3906(3) 0.233(1) 0.1641(3) . 1. 0
O6 O2- 8 f 0.0393(3) 0.387(1) 0.0677(3) . 1. 0
O7 O2- 8 f 0.0234(3) 0.448(1) 0.1977(3) . 1. 0
O8 O2- 8 f 0.4960(3) 0.450(1) 0.3196(3) . 1. 0
O9 O2- 8 f 0.4361(3) 0.380(1) 0.4157(3) . 1. 0
O10 O2- 8 f 0.1395(4) 0.229(1) 0.3577(4) . 1. 0
O11 O2- 8 f 0.2820(4) 0.463(1) 0.0033(4) . 1. 0
loop_
_atom_site_aniso_label
_atom_site_aniso_type_symbol
_atom_site_aniso_beta_11
_atom_site_aniso_beta_22
_atom_site_aniso_beta_33
_atom_site_aniso_beta_12
_atom_site_aniso_beta_13
_atom_site_aniso_beta_23
Tl1 Tl1+ 0.00164(1) 0.0153(1) 0.00256(2) 0.00025(2) 0.00153(1) 0.00053(3)
Mo1 Mo6+ 0.00067(3) 0.0041(2) 0.00046(3) 0 0.00041(2) 0
Mo2 Mo6+ 0.00058(2) 0.0044(2) 0.00054(2) -.00002(4) 0.00041(2) -.00026(4)
Mo3 Mo6+ 0.00061(2) 0.0050(2) 0.00062(2) 0.00003(4) 0.00043(2) 0.00039(5)
Mo4 Mo6+ 0.00059(2) 0.0045(2) 0.00051(2) 0.00001(4) 0.00041(2) 0.00025(4)
O1 O2- 0.0010(2) 0.0114(19) 0.0010(2) 0.0001(5) 0.0002(2) 0.0000(5)
O2 O2- 0.0009(2) 0.0162(21) 0.0008(2) -.0003(5) 0.0004(2) -.0001(5)
O3 O2- 0.0010(2) 0.0065(15) 0.0010(2) 0 0.0007(4) -.0004(4)
O4 O2- 0.0016(2) 0.0096(27) 0.0011(2) 0.0006(5) 0.0011(2) -.0002(5)
O5 O2- 0.0007(2) 0.0070(15) 0.0010(2) -.0003(2) 0.0006(4) 0.0005(2)
O6 O2- 0.0010(2) 0.0057(15) 0.0008(2) -.0001(2) 0.0006(4) 0.0004(2)
O7 O2- 0.0009(2) 0.0057(15) 0.0010(2) 0.0004(4) 0.0007(2) -.0002(4)
O8 O2- 0.0009(2) 0.0058(15) 0.0007(2) 0.0005(4) 0.0006(1) -.0006(4)
O9 O2- 0.0014(2) 0.0074(15) 0.0012(2) 0.0002(5) 0.0011(2) 0.0005(5)
O10 O2- 0.0017(2) 0.0097(18) 0.0017(2) -.0004(5) 0.0013(2) 0.0003(5)
O11 O2- 0.0013(2) 0.0126(20) 0.0013(2) -.0003(5) 0.0004(2) 0.0001(5)
#End of TTdata_343-ICSD
