
#(C) 2019 by FIZ Karlsruhe - Leibniz Institute for Information Infrastructure.  All rights reserved.
data_267-ICSD
_database_code_ICSD 267
_audit_creation_date 1980-01-01
_audit_update_record 2007-08-01
_chemical_name_systematic
'Magnesium zinc hydrogen arsenate(V) hydrate (3.5/1.5/2/4/10)'
_chemical_formula_structural '(Mg0.7 Zn0.3)5 H2 (As O4)4 (H2 O)10'
_chemical_formula_sum 'H22 As4 Mg3.5 O26 Zn1.5'
_chemical_name_structure_type Chudobaite
_chemical_name_mineral Chudobaite
_exptl_crystal_density_diffrn 2.9
_publ_section_title
'Kristallstruktur von Chudobait, (Mg0.5 Zn0.5)5 H2 (As O4)4 (H2 O)10'
loop_
_citation_id
_citation_journal_full
_citation_year
_citation_journal_volume
_citation_page_first
_citation_page_last
_citation_journal_id_ASTM
primary Naturwissenschaften 1976 63 243 243 NATWAY
loop_
_publ_author_name
'Dorner, R.'
'Weber, K.'
_cell_length_a 7.797(9)
_cell_length_b 11.440(9)
_cell_length_c 6.616(3)
_cell_angle_alpha 115.31(10)
_cell_angle_beta 95.77(10)
_cell_angle_gamma 93.87(10)
_cell_volume 526.76
_cell_formula_units_Z 1
_symmetry_space_group_name_H-M 'P -1'
_symmetry_Int_Tables_number 2
_refine_ls_R_factor_all 0.024
loop_
_symmetry_equiv_pos_site_id
_symmetry_equiv_pos_as_xyz
1 '-x, -y, -z'
2 'x, y, z'
loop_
_atom_type_symbol
_atom_type_oxidation_number
As5+ 5
Mg2+ 2
Zn2+ 2
O2- -2
H1+ 1
loop_
_atom_site_label
_atom_site_type_symbol
_atom_site_symmetry_multiplicity
_atom_site_Wyckoff_symbol
_atom_site_fract_x
_atom_site_fract_y
_atom_site_fract_z
_atom_site_B_iso_or_equiv
_atom_site_occupancy
_atom_site_attached_hydrogens
As1 As5+ 2 i 0.03719(6) 0.33476(5) 0.25668(8) 0.35(10) 1. 0
As2 As5+ 2 i -.36510(6) 0.36929(5) -.22421(8) 0.45(10) 1. 0
Mg1 Mg2+ 1 a 0 0 0 0.7(1) 0.7 0
Mg2 Mg2+ 2 i 0.08270(12) 0.40626(9) -.19531(16) 0.23(10) 0.7 0
Mg3 Mg2+ 2 i 0.36190(13) 0.56202(11) -.33033(18) 0.7(1) 0.7 0
Zn1 Zn2+ 1 a 0 0 0 0.7(1) 0.3 0
Zn2 Zn2+ 2 i 0.08270(12) 0.40626(9) -.19531(16) 0.23(10) 0.3 0
Zn3 Zn2+ 2 i 0.36190(13) 0.56202(11) -.33033(18) 0.7(1) 0.3 0
O1 O2- 2 i 0.0470(5) 0.4292(3) 0.1206(6) 0.63(10) 1. 0
O2 O2- 2 i -.1732(4) 0.3035(4) 0.2838(6) 0.67(10) 1. 0
O3 O2- 2 i -.4345(5) 0.4473(4) -.3752(6) 0.77(10) 1. 0
O4 O2- 2 i 0.1575(5) 0.2226(4) 0.7061(7) 1.0(1) 1. 0
O5 O2- 2 i -.3141(4) 0.4674(4) 0.0518(6) 0.66(10) 1. 0
O6 O2- 2 i 0.1143(5) 0.1941(4) 0.1064(6) 0.82(10) 1. 0
O7 O2- 2 i -.1790(4) 0.3072(4) -.3311(6) 0.74(10) 1. 0
O8 O2- 2 i 0.1522(5) -.5888(4) 0.5173(6) 0.74(10) 1. 0
O9 O2- 2 i 0.5273(5) -.2557(4) -.1417(7) 1.24(10) 1. 0
O10 O2- 2 i -.5001(5) 0.2385(4) -.2680(7) 0.99(10) 1. 0
O11 O2- 2 i 0.0781(6) -.0433(4) 0.6876(8) 1.5(1) 1. 0
O12 O2- 2 i -.2285(6) 0.0572(4) -.0944(8) 1.98(10) 1. 0
O13 O2- 2 i 0.4440(6) -.0650(5) 0.6893(9) 2.48(10) 1. 0
H1 H1+ 2 i -.235(15) 0.149(11) 0.014(20) . 1. 0
H2 H1+ 2 i 0.132(11) 0.191(8) 0.816(21) . 1. 0
H3 H1+ 2 i 0.515(9) -.231(9) 0.019(16) . 1. 0
H4 H1+ 2 i 0.424(20) -.110(9) -.199(19) . 1. 0
H5 H1+ 2 i 0.431(14) -.073(10) 0.568(14) . 1. 0
H6 H1+ 2 i -.314(14) 0.016(8) -.141(14) . 1. 0
H7 H1+ 2 i -.184(10) 0.306(9) 0.507(17) . 1. 0
H8 H1+ 2 i 0.258(13) 0.217(8) 0.696(15) . 1. 0
H9 H1+ 2 i -.364(15) -.221(11) -.135(16) . 1. 0
H10 H1+ 2 i 0.2 -.05 0.689 . 1. 0
H11 H1+ 2 i 0 -.103 0.554 . 1. 0
#End of TTdata_267-ICSD
