
#(C) 2019 by FIZ Karlsruhe - Leibniz Institute for Information Infrastructure.  All rights reserved.
data_324-ICSD
_database_code_ICSD 324
_audit_creation_date 1980-01-01
_audit_update_record 2010-02-01
_chemical_name_systematic 'Calcium diammonium cyclo-tetraphosphate(V) dihydrate'
_chemical_formula_structural 'Ca (N H4)2 (P4 O12) (H2 O)2'
_chemical_formula_sum 'H12 Ca1 N2 O14 P4'
_exptl_crystal_density_diffrn 1.97
_publ_section_title

;
Structure cristalline du tetrametaphosphate de calcium-ammonium dihydrate: Ca
(N H4)2 P4 O12 (H2 O)2
;
loop_
_citation_id
_citation_journal_full
_citation_year
_citation_journal_volume
_citation_page_first
_citation_page_last
_citation_journal_id_ASTM
primary

;
Acta Crystallographica, Section B: Structural Crystallography and Crystal
Chemistry
; 1976 32 1643 1645 ACBCAR
loop_
_publ_author_name
'Tordjman, I.'
'Masse, R.'
'Guitel, J.C.'
_cell_length_a 16.783(10)
_cell_length_b 10.888(6)
_cell_length_c 7.913(2)
_cell_angle_alpha 90.
_cell_angle_beta 90.92(8)
_cell_angle_gamma 90.
_cell_volume 1445.78
_cell_formula_units_Z 4
_symmetry_space_group_name_H-M 'P 1 21/n 1'
_symmetry_Int_Tables_number 14
_refine_ls_R_factor_all 0.07
loop_
_symmetry_equiv_pos_site_id
_symmetry_equiv_pos_as_xyz
1 '-x+1/2, y+1/2, -z+1/2'
2 '-x, -y, -z'
3 'x+1/2, -y+1/2, z+1/2'
4 'x, y, z'
loop_
_atom_type_symbol
_atom_type_oxidation_number
Ca2+ 2
P5+ 5
O2- -2
N3- -3
O2- -2
H1+ 1
loop_
_atom_site_label
_atom_site_type_symbol
_atom_site_symmetry_multiplicity
_atom_site_Wyckoff_symbol
_atom_site_fract_x
_atom_site_fract_y
_atom_site_fract_z
_atom_site_B_iso_or_equiv
_atom_site_occupancy
_atom_site_attached_hydrogens
Ca1 Ca2+ 4 e 0.6869(1) 0.5449(2) 0.0079(3) . 1. 0
P1 P5+ 4 e 0.5556(2) 0.6936(3) 0.7071(5) . 1. 0
P2 P5+ 4 e 0.5587(2) 0.6571(3) 0.3382(4) . 1. 0
P3 P5+ 4 e 0.7082(2) 0.7883(3) 0.3230(4) . 1. 0
P4 P5+ 4 e 0.7174(2) 0.7866(3) 0.6884(4) . 1. 0
O1 O2- 4 e 0.5680(4) 0.6221(7) 0.5383(9) . 1. 0
O2 O2- 4 e 0.7312(4) 0.7316(7) 0.5057(10) . 1. 0
O3 O2- 4 e 0.6228(4) 0.8020(8) 0.6933(10) . 1. 0
O4 O2- 4 e 0.6118(4) 0.7793(8) 0.3248(10) . 1. 0
O5 O2- 4 e 0.5757(5) 0.6150(8) 0.8471(10) . 1. 0
O6 O2- 4 e 0.4790(5) 0.7546(9) 0.7037(13) . 1. 0
O7 O2- 4 e 0.7467(3) 0.6917(8) 0.8118(10) . 1. 0
O8 O2- 4 e 0.7499(5) 0.9117(8) 0.7017(10) . 1. 0
O9 O2- 4 e 0.4749(4) 0.6953(8) 0.3031(10) . 1. 0
O10 O2- 4 e 0.5970(5) 0.5537(8) 0.2445(10) . 1. 0
O11 O2- 4 e 0.7404(6) 0.7074(8) 0.1941(10) . 1. 0
O12 O2- 4 e 0.7269(5) 0.9202(8) 0.319(1) . 1. 0
N1 N3- 4 e 0.1545(6) 0.1235(8) 0.9882(13) . 1. 0
N2 N3- 4 e 0.0930(8) 0.4248(13) 0.2922(17) . 1. 0
O13 O2- 4 e 0.1049(5) 0.1389(8) 0.5009(11) . 1. 0
O14 O2- 4 e 0.0979(7) 0.4491(3) 0.6411(16) . 1. 0
loop_
_atom_site_aniso_label
_atom_site_aniso_type_symbol
_atom_site_aniso_beta_11
_atom_site_aniso_beta_22
_atom_site_aniso_beta_33
_atom_site_aniso_beta_12
_atom_site_aniso_beta_13
_atom_site_aniso_beta_23
Ca1 Ca2+ 0.0015(1) 0.0033(2) 0.0063(4) 0.0001(1) -.0002(1) 0.0000(3)
P1 P5+ 0.0008(1) 0.0046(3) 0.0068(7) 0.0000(2) 0.0005(2) 0.0003(3)
P2 P5+ 0.0006(1) 0.0035(3) 0.0062(6) -.0002(1) 0.0003(2) -.0004(4)
P3 P5+ 0.0013(1) 0.0026(3) 0.0032(6) -.0005(2) -.0001(2) -.0002(4)
P4 P5+ 0.0011(1) 0.0017(3) 0.0052(6) -.0003(2) 0.0000(2) 0.0002(4)
O1 O2- 0.0007(3) 0.0042(8) 0.0036(15) -.0005(4) -.0011(5) -.0001(9)
O2 O2- 0.0010(3) 0.0033(8) 0.0058(15) -.0011(4) 0.0000(5) -.0003(9)
O3 O2- 0.0009(3) 0.0033(8) 0.0056(15) 0.0002(4) 0.0006(5) -.0006(9)
O4 O2- 0.0020(3) 0.0016(8) 0.0064(16) 0.0009(4) 0.0004(6) 0.0006(9)
O5 O2- 0.0022(4) 0.0055(10) 0.0079(18) -.0020(5) -.0009(7) -.0009(11)
O6 O2- 0.0019(4) 0.0075(12) 0.0243(27) 0.0007(5) -.0011(8) -.0046(14)
O7 O2- 0.0009(3) 0.0041(9) 0.0058(16) -.0005(4) -.0007(6) 0.0008(10)
O8 O2- 0.0019(4) 0.0051(8) 0.0051(16) -.0015(5) 0.0001(6) 0.0001(10)
O9 O2- 0.0011(3) 0.0058(9) 0.0059(16) -.0003(5) 0.0000(6) 0.0012(10)
O10 O2- 0.0032(4) 0.0042(9) 0.0042(15) -.0015(5) 0.0016(6) -.0005(10)
O11 O2- 0.0010(3) 0.0049(8) 0.0060(16) -.0004(5) -.0004(6) -.0011(11)
O12 O2- 0.0029(4) 0.0033(9) 0.0056(17) 0.0002(5) -.0009(7) -.0001(10)
N1 N3- 0.0005(5) 0.0072(13) 0.0138(25) -.0008(6) 0.0006(8) -.0016(15)
N2 N3- 0.0062(9) 0.0097(19) 0.0315(39) 0.0012(9) -.0006(15) -.0057(22)
O13 O2- 0.0023(4) 0.0038(9) 0.0104(19) 0.0002(15) 0.0004(17) 0.0004(11)
O14 O2- 0.0075(8) 0.0137(18) 0.0289(33) -.0027(10) -.0029(13) 0.0037(22)
#End of TTdata_324-ICSD
