
#(C) 2019 by FIZ Karlsruhe - Leibniz Institute for Information Infrastructure.  All rights reserved.
data_77-ICSD
_database_code_ICSD 77
_audit_creation_date 2008-07-07
_audit_update_record 2017-08-01
_chemical_name_systematic 'Bismuth yttrium (3/5)'
_chemical_formula_structural 'Bi3 Y5'
_chemical_formula_sum 'Bi3 Y5'
_chemical_name_structure_type Bi3Y5
_exptl_crystal_density_diffrn 7.74
_publ_section_title

;
The crystal structure of Y5 Bi3 and its relation to the Mn5 Si3 and Yb5 Sb3
type structures
;
loop_
_citation_id
_citation_journal_full
_citation_year
_citation_journal_volume
_citation_page_first
_citation_page_last
_citation_journal_id_ASTM
primary

;
Acta Crystallographica, Section B: Structural Crystallography and Crystal
Chemistry
; 1976 32 1440 1445 ACBCAR
loop_
_publ_author_name
'Wang, Yu'
'Gabe, E.J.'
'Calvert, L.D.'
'Taylor, J.B.'
_cell_length_a 8.179(1)
_cell_length_b 9.401(1)
_cell_length_c 11.957(1)
_cell_angle_alpha 90.
_cell_angle_beta 90.
_cell_angle_gamma 90.
_cell_volume 919.38
_cell_formula_units_Z 4
_symmetry_space_group_name_H-M 'P n m a'
_symmetry_Int_Tables_number 62
_refine_ls_R_factor_all 0.031
loop_
_symmetry_equiv_pos_site_id
_symmetry_equiv_pos_as_xyz
1 'x+1/2, y, -z+1/2'
2 'x, -y+1/2, z'
3 '-x+1/2, y+1/2, z+1/2'
4 '-x, -y, -z'
5 '-x+1/2, -y, z+1/2'
6 '-x, y+1/2, -z'
7 'x+1/2, -y+1/2, -z+1/2'
8 'x, y, z'
loop_
_atom_type_symbol
_atom_type_oxidation_number
Bi0+ 0
Y0+ 0
loop_
_atom_site_label
_atom_site_type_symbol
_atom_site_symmetry_multiplicity
_atom_site_Wyckoff_symbol
_atom_site_fract_x
_atom_site_fract_y
_atom_site_fract_z
_atom_site_B_iso_or_equiv
_atom_site_occupancy
_atom_site_attached_hydrogens
Bi1 Bi0+ 8 d 0.0664(1) -.0030(1) 0.1740(1) . 1. 0
Bi2 Bi0+ 4 c 0.0889(1) 0.25 0.4577(1) . 1. 0
Y1 Y0+ 4 c 0.4726(3) 0.25 0.4902(2) . 1. 0
Y2 Y0+ 4 c 0.3146(4) 0.25 0.2194(2) . 1. 0
Y3 Y0+ 8 d 0.1934(3) 0.5607(2) 0.4404(1) . 1. 0
Y4 Y0+ 4 c 0.1458(4) 0.25 0.7126(2) . 1. 0
loop_
_atom_site_aniso_label
_atom_site_aniso_type_symbol
_atom_site_aniso_beta_11
_atom_site_aniso_beta_22
_atom_site_aniso_beta_33
_atom_site_aniso_beta_12
_atom_site_aniso_beta_13
_atom_site_aniso_beta_23
Bi1 Bi0+ 0.00096 0.00074 0.0007 0.00006 -.00013 -.00002
Bi2 Bi0+ 0.00085 0.00081 0.00071 0 0.00001 0
Y1 Y0+ 0.00063 0.00099 0.00083 0 -.00005 0
Y2 Y0+ 0.00078 0.00095 0.00084 0 0.00014 0
Y3 Y0+ 0.0009 0.00081 0.00075 -.00008 0.00007 -.00007
Y4 Y0+ 0.00113 0.00115 0.00065 0 0.00008 0
#End of TTdata_77-ICSD
