
#(C) 2019 by FIZ Karlsruhe - Leibniz Institute for Information Infrastructure.  All rights reserved.
data_266-ICSD
_database_code_ICSD 266
_audit_creation_date 1980-01-01
_audit_update_record 2017-08-01
_chemical_name_systematic 'Hexapotassium tetrathiomercurate'
_chemical_formula_structural 'K6 (Hg S4)'
_chemical_formula_sum 'Hg1 K6 S4'
_chemical_name_structure_type K6HgS4
_exptl_crystal_density_diffrn 2.83
_publ_section_title 'Das erste Thiomercurat(II) mit Inselstruktur: K6 (Hg S4)'
loop_
_citation_id
_citation_journal_full
_citation_year
_citation_journal_volume
_citation_page_first
_citation_page_last
_citation_journal_id_ASTM
primary Naturwissenschaften 1976 63 194 195 NATWAY
loop_
_publ_author_name
'Sommer, H.'
'Hoppe, R.'
'Jansen, M.'
_cell_length_a 9.987
_cell_length_b 9.987
_cell_length_c 7.649
_cell_angle_alpha 90.
_cell_angle_beta 90.
_cell_angle_gamma 120.
_cell_volume 660.7
_cell_formula_units_Z 2
_symmetry_space_group_name_H-M 'P 63 m c'
_symmetry_Int_Tables_number 186
_refine_ls_R_factor_all 0.066
loop_
_symmetry_equiv_pos_site_id
_symmetry_equiv_pos_as_xyz
1 '-x, -x+y, z+1/2'
2 'x-y, -y, z+1/2'
3 'y, x, z+1/2'
4 'x-y, x, z+1/2'
5 'y, -x+y, z+1/2'
6 '-x, -y, z+1/2'
7 'x, x-y, z'
8 '-x+y, y, z'
9 '-y, -x, z'
10 '-x+y, -x, z'
11 '-y, x-y, z'
12 'x, y, z'
loop_
_atom_type_symbol
_atom_type_oxidation_number
Hg2+ 2
S2- -2
K1+ 1
loop_
_atom_site_label
_atom_site_type_symbol
_atom_site_symmetry_multiplicity
_atom_site_Wyckoff_symbol
_atom_site_fract_x
_atom_site_fract_y
_atom_site_fract_z
_atom_site_B_iso_or_equiv
_atom_site_occupancy
_atom_site_attached_hydrogens
Hg1 Hg2+ 2 b 0.3333 0.6667 0.501 . 1. 0
S1 S2- 2 b 0.3333 0.6667 0.833 . 1. 0
S2 S2- 6 c 0.809 0.618 0.896 . 1. 0
K1 K1+ 6 c 0.147 0.294 0.797 . 1. 0
K2 K1+ 6 c 0.528 0.056 0.625 . 1. 0
loop_
_atom_site_aniso_label
_atom_site_aniso_type_symbol
_atom_site_aniso_U_11
_atom_site_aniso_U_22
_atom_site_aniso_U_33
_atom_site_aniso_U_12
_atom_site_aniso_U_13
_atom_site_aniso_U_23
Hg1 Hg2+ 0.0176 0.0176 0.0176 0.0088 0. 0.
S1 S2- 0.0106 0.0107 0.0106 0.0053 0. 0.
S2 S2- 0.0154 0.0154 0.0154 0.0072 0. 0.
K1 K1+ 0.0484 0.0484 0.0484 0.0487 0 0
K2 K1+ 0.0296 0.0296 0.0296 0.0066 0 0
#End of TTdata_266-ICSD
