
#(C) 2019 by FIZ Karlsruhe - Leibniz Institute for Information Infrastructure.  All rights reserved.
data_346-ICSD
_database_code_ICSD 346
_audit_creation_date 1980-01-01
_audit_update_record 2015-08-01
_chemical_name_systematic 'Potassium hydrogensulfate(VI)'
_chemical_formula_structural 'K (H S O4)'
_chemical_formula_sum 'H1 K1 O4 S1'
_chemical_name_structure_type KHSO4
_chemical_name_mineral Mercallite
_exptl_crystal_density_diffrn 2.31
_publ_section_title

;
On the hydrogen bonding in potassium hydrogen sulphate. Comparison with a
previous crystal structure determination
;
loop_
_citation_id
_citation_journal_full
_citation_year
_citation_journal_volume
_citation_page_first
_citation_page_last
_citation_journal_id_ASTM
primary

;
Acta Crystallographica, Section B: Structural Crystallography and Crystal
Chemistry
; 1976 32 1875 1879 ACBCAR
loop_
_publ_author_name
'Payan, F.'
'Haser, R.'
_cell_length_a 8.429(3)
_cell_length_b 9.807(3)
_cell_length_c 18.976(6)
_cell_angle_alpha 90.
_cell_angle_beta 90.
_cell_angle_gamma 90.
_cell_volume 1568.62
_cell_formula_units_Z 16
_symmetry_space_group_name_H-M 'P b c a'
_symmetry_Int_Tables_number 61
_refine_ls_R_factor_all 0.035
loop_
_symmetry_equiv_pos_site_id
_symmetry_equiv_pos_as_xyz
1 'x+1/2, y, -z+1/2'
2 'x, -y+1/2, z+1/2'
3 '-x+1/2, y+1/2, z'
4 '-x, -y, -z'
5 '-x+1/2, -y, z+1/2'
6 '-x, y+1/2, -z+1/2'
7 'x+1/2, -y+1/2, -z'
8 'x, y, z'
loop_
_atom_type_symbol
_atom_type_oxidation_number
K1+ 1
S6+ 6
O2- -2
H1+ 1
loop_
_atom_site_label
_atom_site_type_symbol
_atom_site_symmetry_multiplicity
_atom_site_Wyckoff_symbol
_atom_site_fract_x
_atom_site_fract_y
_atom_site_fract_z
_atom_site_B_iso_or_equiv
_atom_site_occupancy
_atom_site_attached_hydrogens
K1 K1+ 8 c 0.38272(8) 0.18063(8) 0.12506(4) . 1. 0
K2 K1+ 8 c -.12272(8) 0.31966(7) 0.11831(4) . 1. 0
S1 S6+ 8 c 0.25447(8) 0.42281(7) 0.00267(4) . 1. 0
S2 S6+ 8 c -.01931(8) 0.01693(8) 0.20599(4) . 1. 0
O1 O2- 8 c 0.2916(3) 0.5801(2) 0.0017(1) . 1. 0
O2 O2- 8 c 0.4080(3) 0.3523(2) 0.0033(2) . 1. 0
O3 O2- 8 c 0.1664(3) 0.3965(3) -.0610(1) . 1. 0
O4 O2- 8 c 0.1658(3) 0.3986(3) 0.0665(1) . 1. 0
O5 O2- 8 c 0.0604(3) -.0009(3) 0.2746(1) . 1. 0
O6 O2- 8 c -.1641(3) 0.1117(3) 0.2224(1) . 1. 0
O7 O2- 8 c -.0815(3) -.1098(3) 0.1788(2) . 1. 0
O8 O2- 8 c 0.0767(3) 0.0942(3) 0.1577(1) . 1. 0
H1 H1+ 8 c 0.3790(7) 0.5920(5) 0.0010(2) 3. 1. 0
H2 H1+ 8 c 0.248 0.008 0.275 3. 0.5 0
H3 H1+ 8 c 0.151 0.017 0.282 3. 0.5 0
loop_
_atom_site_aniso_label
_atom_site_aniso_type_symbol
_atom_site_aniso_beta_11
_atom_site_aniso_beta_22
_atom_site_aniso_beta_33
_atom_site_aniso_beta_12
_atom_site_aniso_beta_13
_atom_site_aniso_beta_23
K1 K1+ 0.0051(1) 0.0045(1) 0.00101(2) -.0003(1) -.00001(3) 0.00020(3)
K2 K1+ 0.0052(1) 0.0033(1) 0.00093(2) 0.0000(1) 0.00000(3) -.00010(3)
S1 S6+ 0.0027(1) 0.0024(1) 0.00084(2) -.0001(1) -.00001(3) 0.00002(3)
S2 S6+ 0.0029(1) 0.0038(1) 0.00085(2) 0.0000(1) -.00013(3) 0.00000(4)
O1 O2- 0.0038(3) 0.0025(2) 0.0015(1) 0.0000(2) -.0003(1) 0.0001(1)
O2 O2- 0.0035(3) 0.0025(2) 0.0016(1) 0.0004(2) 0.0001(1) 0.0001(1)
O3 O2- 0.0076(4) 0.0055(3) 0.0014(1) -.0007(3) -.0017(1) -.0003(1)
O4 O2- 0.0071(4) 0.0057(3) 0.0014(1) -.0010(3) 0.0017(1) 0.0002(1)
O5 O2- 0.0054(3) 0.0077(4) 0.0012(1) -.0012(3) -.0010(1) 0.0014(1)
O6 O2- 0.0037(3) 0.0041(2) 0.0017(1) 0.0001(2) 0.0005(1) -.0004(1)
O7 O2- 0.0068(4) 0.0047(3) 0.0029(1) 0.0002(3) -.0007(2) -.0017(1)
O8 O2- 0.0054(3) 0.0085(4) 0.0011(1) -.0005(3) 0.0007(1) 0.0007(1)
#End of TTdata_346-ICSD
