
#(C) 2019 by FIZ Karlsruhe - Leibniz Institute for Information Infrastructure.  All rights reserved.
data_78-ICSD
_database_code_ICSD 78
_audit_creation_date 1980-01-01
_audit_update_record 2009-08-01
_chemical_name_systematic 'Magnesium hydrogenarsenate(V) tetrahydrate'
_chemical_formula_structural 'Mg (As O3 (O H)) (H2 O)4'
_chemical_formula_sum 'H9 As1 Mg1 O8'
_chemical_name_mineral Brassite
_exptl_crystal_density_diffrn 2.33
_publ_section_title

;
Structure cristalline de la brassite, Mg H As O4 (H2 O)48 produit de
deshydratation de la roesslerite
;
loop_
_citation_id
_citation_journal_full
_citation_year
_citation_journal_volume
_citation_page_first
_citation_page_last
_citation_journal_id_ASTM
primary

;
Acta Crystallographica, Section B: Structural Crystallography and Crystal
Chemistry
; 1976 32 1460 1466 ACBCAR
loop_
_publ_author_name
'Protas, J.'
'Gindt, R.'
_cell_length_a 7.472(1)
_cell_length_b 10.891(1)
_cell_length_c 16.5850(50)
_cell_angle_alpha 90.
_cell_angle_beta 90.
_cell_angle_gamma 90.
_cell_volume 1349.65
_cell_formula_units_Z 8
_symmetry_space_group_name_H-M 'P b c a'
_symmetry_Int_Tables_number 61
_refine_ls_R_factor_all 0.062
loop_
_symmetry_equiv_pos_site_id
_symmetry_equiv_pos_as_xyz
1 'x+1/2, y, -z+1/2'
2 'x, -y+1/2, z+1/2'
3 '-x+1/2, y+1/2, z'
4 '-x, -y, -z'
5 '-x+1/2, -y, z+1/2'
6 '-x, y+1/2, -z+1/2'
7 'x+1/2, -y+1/2, -z'
8 'x, y, z'
loop_
_atom_type_symbol
_atom_type_oxidation_number
As5+ 5
Mg2+ 2
O2- -2
H1+ 1
loop_
_atom_site_label
_atom_site_type_symbol
_atom_site_symmetry_multiplicity
_atom_site_Wyckoff_symbol
_atom_site_fract_x
_atom_site_fract_y
_atom_site_fract_z
_atom_site_B_iso_or_equiv
_atom_site_occupancy
_atom_site_attached_hydrogens
As1 As5+ 8 c -.0009(2) 0.2067(1) 0.0990(4) . 1. 0
Mg1 Mg2+ 8 c 0.2941(4) 0.4715(3) 0.3468(2) . 1. 0
O1 O2- 8 c 0.4121(11) 0.3030(12) -.0065(3) . 1. 0
O2 O2- 8 c 0.2219(9) 0.1623(16) 0.0877(4) . 1. 0
O3 O2- 8 c 0.0017(10) 0.3485(11) 0.1371(4) . 1. 0
O4 O2- 8 c 0.4121(10) 0.1017(14) 0.3389(3) . 1. 0
O5 O2- 8 c 0.5150(9) 0.1058(12) 0.1869(4) . 1. 0
O6 O2- 8 c 0.2776(10) 0.4276(15) 0.2256(5) . 1. 0
O7 O2- 8 c 0.0954(11) 0.3424(16) 0.3697(4) . 1. 0
O8 O2- 8 c 0.1750(9) 0.0193(8) 0.4669(5) . 1. 0
loop_
_atom_site_aniso_label
_atom_site_aniso_type_symbol
_atom_site_aniso_beta_11
_atom_site_aniso_beta_22
_atom_site_aniso_beta_33
_atom_site_aniso_beta_12
_atom_site_aniso_beta_13
_atom_site_aniso_beta_23
As1 As5+ 0.00311 0.00197 0.00079 -.00022 0.00034 0.00005
Mg1 Mg2+ 0.0041 0.00235 0.00096 -.00059 0.00038 -.00002
O1 O2- 0.00823 0.00435 0.00059 -.00166 0.00038 0.00012
O2 O2- 0.00602 0.0048 0.00158 -.00135 -.00028 0.00032
O3 O2- 0.00567 0.00175 0.00188 0.00104 -.00004 0.00014
O4 O2- 0.00645 0.00313 0.00107 -.00026 -.00016 -.00006
O5 O2- 0.00547 0.00243 0.00158 0.00012 0.00033 -.00013
O6 O2- 0.00897 0.00436 0.00163 -.00008 -.00101 -.00002
O7 O2- 0.00719 0.004 0.00182 -.00028 0.00026 -.00015
O8 O2- 0.00926 0.00293 0.0016 0.00272 -.0008 0.00005
#End of TTdata_78-ICSD
