
#(C) 2019 by FIZ Karlsruhe - Leibniz Institute for Information Infrastructure.  All rights reserved.
data_281-ICSD
_database_code_ICSD 281
_audit_creation_date 1980-01-01
_audit_update_record 2012-08-01
_chemical_name_systematic 'Dicesium hexafluorostannate'
_chemical_formula_structural 'Cs2 (Sn F6)'
_chemical_formula_sum 'Cs2 F6 Sn1'
_chemical_name_structure_type K2GeF6
_exptl_crystal_density_diffrn 4.75
_publ_section_title 'Etude structurale de Cs2 Sn F6'
loop_
_citation_id
_citation_journal_full
_citation_year
_citation_journal_volume
_citation_page_first
_citation_page_last
_citation_journal_id_ASTM
primary 'Journal of Solid State Chemistry' 1976 16 157 160 JSSCBI
loop_
_publ_author_name
'Durand, M.'
'Galigne, J.L.'
'Lari-Lavassani, A.'
_cell_length_a 6.322(6)
_cell_length_b 6.322(6)
_cell_length_c 5.032(5)
_cell_angle_alpha 90.
_cell_angle_beta 90.
_cell_angle_gamma 120.
_cell_volume 174.17
_cell_formula_units_Z 1
_symmetry_space_group_name_H-M 'P -3 m 1'
_symmetry_Int_Tables_number 164
_refine_ls_R_factor_all 0.045
loop_
_symmetry_equiv_pos_site_id
_symmetry_equiv_pos_as_xyz
1 'x-y, -y, -z'
2 '-x, -x+y, -z'
3 'y, x, -z'
4 'x-y, x, -z'
5 'y, -x+y, -z'
6 '-x, -y, -z'
7 '-x+y, y, z'
8 'x, x-y, z'
9 '-y, -x, z'
10 '-x+y, -x, z'
11 '-y, x-y, z'
12 'x, y, z'
loop_
_atom_type_symbol
_atom_type_oxidation_number
Cs1+ 1
Sn4+ 4
F1- -1
loop_
_atom_site_label
_atom_site_type_symbol
_atom_site_symmetry_multiplicity
_atom_site_Wyckoff_symbol
_atom_site_fract_x
_atom_site_fract_y
_atom_site_fract_z
_atom_site_B_iso_or_equiv
_atom_site_occupancy
_atom_site_attached_hydrogens
Cs1 Cs1+ 2 d 0.3333 0.6667 0.3090(2) . 1. 0
Sn1 Sn4+ 1 a 0 0 0 . 1. 0
F1 F1- 6 i 0.1480(11) -.1480(11) -.2163(12) . 1. 0
loop_
_atom_site_aniso_label
_atom_site_aniso_type_symbol
_atom_site_aniso_beta_11
_atom_site_aniso_beta_22
_atom_site_aniso_beta_33
_atom_site_aniso_beta_12
_atom_site_aniso_beta_13
_atom_site_aniso_beta_23
Cs1 Cs1+ 0.0119(2) 0.0119(2) 0.0125 0.0059(1) 0 0
Sn1 Sn4+ 0.0081(3) 0.0081(3) 0.0063(3) 0.0040(2) 0 0
F1 F1- 0.0168(26) 0.0168(26) 0.0169(19) 0.0099(15) 0.0033(16) -.0033(16)
#End of TTdata_281-ICSD
