
#(C) 2019 by FIZ Karlsruhe - Leibniz Institute for Information Infrastructure.  All rights reserved.
data_192-ICSD
_database_code_ICSD 192
_audit_creation_date 1980-01-01
_audit_update_record 2009-08-01
_chemical_name_systematic 'Iron zirconium selenide (0.4/1/2)'
_chemical_formula_structural 'Fe0.4 Zr Se2'
_chemical_formula_sum 'Fe0.4 Se2 Zr1'
_chemical_name_structure_type CoNb3S6
_exptl_crystal_density_diffrn 6.76
_publ_section_title
'Structures of a semiconducting and a metallic phase in the Fe Y Zr Se2 system'
loop_
_citation_id
_citation_journal_full
_citation_year
_citation_journal_volume
_citation_page_first
_citation_page_last
_citation_journal_id_ASTM
primary 'Journal of Solid State Chemistry' 1976 17 363 372 JSSCBI
loop_
_publ_author_name
'Gleizes, A.'
'Revelli, J.'
'Ibers, J.A.'
_cell_length_a 6.011(1)
_cell_length_b 6.011(1)
_cell_length_c 12.787(1)
_cell_angle_alpha 90.
_cell_angle_beta 90.
_cell_angle_gamma 120.
_cell_volume 400.12
_cell_formula_units_Z 6
_symmetry_space_group_name_H-M 'P 63 2 2'
_symmetry_Int_Tables_number 182
_refine_ls_R_factor_all 0.037
loop_
_symmetry_equiv_pos_site_id
_symmetry_equiv_pos_as_xyz
1 'x, x-y, -z+1/2'
2 '-x+y, y, -z+1/2'
3 '-y, -x, -z+1/2'
4 'x-y, x, z+1/2'
5 'y, -x+y, z+1/2'
6 '-x, -y, z+1/2'
7 '-x, -x+y, -z'
8 'x-y, -y, -z'
9 'y, x, -z'
10 '-x+y, -x, z'
11 '-y, x-y, z'
12 'x, y, z'
loop_
_atom_type_symbol
_atom_type_oxidation_number
Zr4+ 4
Fe0+ 0
Se2- -2
loop_
_atom_site_label
_atom_site_type_symbol
_atom_site_symmetry_multiplicity
_atom_site_Wyckoff_symbol
_atom_site_fract_x
_atom_site_fract_y
_atom_site_fract_z
_atom_site_B_iso_or_equiv
_atom_site_occupancy
_atom_site_attached_hydrogens
Zr1 Zr4+ 4 f 0.3333 0.6666 0.0010(1) 0.22 1. 0
Zr2 Zr4+ 2 a 0 0 0 0.26 1. 0
Fe1 Fe0+ 2 c 0.3333 0.6666 0.25 0.32(1) 0.79(1) 0
Fe2 Fe0+ 2 b 0 0 0.25 2.5(2) 0.40(2) 0
Se1 Se2- 12 i 0.6732(6) 0.0060(2) 0.1302(1) 0.496(2) 1. 0
#End of TTdata_192-ICSD
