
#(C) 2019 by FIZ Karlsruhe - Leibniz Institute for Information Infrastructure.  All rights reserved.
data_79-ICSD
_database_code_ICSD 79
_audit_creation_date 1980-01-01
_audit_update_record 2011-08-01
_chemical_name_systematic 'Tellurium iodide'
_chemical_formula_structural 'Te I4'
_chemical_formula_sum 'I4 Te1'
_exptl_crystal_density_diffrn 5.04
_publ_section_title 'Kristallstruktur des Tellurtetrajodids Te I4'
loop_
_citation_id
_citation_journal_full
_citation_year
_citation_journal_volume
_citation_page_first
_citation_page_last
_citation_journal_id_ASTM
primary

;
Acta Crystallographica, Section B: Structural Crystallography and Crystal
Chemistry
; 1976 32 1470 1476 ACBCAR
loop_
_publ_author_name
'Krebs, B.'
'Paulat, V.'
_cell_length_a 13.635(5)
_cell_length_b 16.798(5)
_cell_length_c 14.624(5)
_cell_angle_alpha 90.
_cell_angle_beta 90.
_cell_angle_gamma 90.
_cell_volume 3349.49
_cell_formula_units_Z 16
_symmetry_space_group_name_H-M 'P n m a'
_symmetry_Int_Tables_number 62
_refine_ls_R_factor_all 0.051
loop_
_symmetry_equiv_pos_site_id
_symmetry_equiv_pos_as_xyz
1 'x+1/2, y, -z+1/2'
2 'x, -y+1/2, z'
3 '-x+1/2, y+1/2, z+1/2'
4 '-x, -y, -z'
5 '-x+1/2, -y, z+1/2'
6 '-x, y+1/2, -z'
7 'x+1/2, -y+1/2, -z+1/2'
8 'x, y, z'
loop_
_atom_type_symbol
_atom_type_oxidation_number
Te4+ 4
I1- -1
loop_
_atom_site_label
_atom_site_type_symbol
_atom_site_symmetry_multiplicity
_atom_site_Wyckoff_symbol
_atom_site_fract_x
_atom_site_fract_y
_atom_site_fract_z
_atom_site_B_iso_or_equiv
_atom_site_occupancy
_atom_site_attached_hydrogens
Te1 Te4+ 4 c 0.14092(7) 0.25 0.59862(6) . 1. 0
Te2 Te4+ 8 d 0.13471(5) 0.10875(4) 0.32949(4) . 1. 0
Te3 Te4+ 4 c 0.13113(7) 0.25 0.05877(6) . 1. 0
I1 I1- 4 c 0.00012(9) 0.25 0.73540(8) . 1. 0
I2 I1- 8 d 0.25397(6) 0.12881(5) 0.66905(6) . 1. 0
I3 I1- 8 d 0.26100(6) 0.00090(5) 0.41054(6) . 1. 0
I4 I1- 8 d 0.01636(6) -.00538(5) 0.24875(6) . 1. 0
I5 I1- 8 d 0.01753(6) 0.12706(5) -.01344(6) . 1. 0
I6 I1- 4 c 0.26796(9) 0.25 -.08044(7) . 1. 0
I7 I1- 8 d 0.00596(6) 0.11921(5) 0.48969(5) . 1. 0
I8 I1- 8 d 0.26206(6) 0.11813(5) 0.16345(5) . 1. 0
I9 I1- 4 c 0.26826(7) 0.25 0.41482(6) . 1. 0
I10 I1- 4 c 0.00161(6) 0.25 0.24240(6) . 1. 0
loop_
_atom_site_aniso_label
_atom_site_aniso_type_symbol
_atom_site_aniso_B_11
_atom_site_aniso_B_22
_atom_site_aniso_B_33
_atom_site_aniso_B_12
_atom_site_aniso_B_13
_atom_site_aniso_B_23
Te1 Te4+ 2.11(4) 1.34(3) 1.49(4) 0 0.01(3) 0
Te2 Te4+ 2.19(3) 1.22(2) 1.54(2) 0.06(2) -.09(2) -.08(2)
Te3 Te4+ 2.28(4) 1.54(4) 1.29(3) 0 0.07(3) 0
I1 I1- 3.56(6) 3.14(5) 2.28(4) 0 1.17(4) 0
I2 I1- 3.97(4) 2.35(3) 2.87(4) 1.03(3) -.58(3) 0.36(3)
I3 I1- 3.64(4) 2.14(3) 2.67(4) 0.83(3) -.32(3) 0.51(3)
I4 I1- 3.39(4) 2.58(3) 3.37(4) -1.04(3) -.08(3) -1.02(3)
I5 I1- 3.13(4) 2.71(4) 3.23(4) -.86(3) -.41(3) -.66(3)
I6 I1- 2.98(5) 2.91(5) 2.29(5) 0 0.73(4) 0
I7 I1- 2.58(3) 2.43(3) 2.09(3) -.68(2) 0.64(2) -.54(2)
I8 I1- 2.39(3) 2.41(3) 2.04(3) 0.51(2) 0.53(2) 0.31(2)
I9 I1- 1.93(4) 1.73(4) 1.85(4) 0 0.09(3) 0
I10 I1- 1.87(4) 1.93(4) 1.87(4) 0 -.03(3) 0
#End of TTdata_79-ICSD
