
#(C) 2019 by FIZ Karlsruhe - Leibniz Institute for Information Infrastructure.  All rights reserved.
data_95-ICSD
_database_code_ICSD 95
_audit_creation_date 1980-01-01
_audit_update_record 2009-08-01
_chemical_name_systematic 'Decasodium dihydrogendodecatungstate icosahydrate'
_chemical_formula_structural 'Na10 (H2 W12 O42) (H2 O)20'
_chemical_formula_sum 'H42 Na10 O62 W12'
_exptl_crystal_density_diffrn 4.2
_publ_section_title 'Sodium paradodecatungstate 20-hydrate'
loop_
_citation_id
_citation_journal_full
_citation_year
_citation_journal_volume
_citation_page_first
_citation_page_last
_citation_journal_id_ASTM
primary

;
Acta Crystallographica, Section B: Structural Crystallography and Crystal
Chemistry
; 1976 32 1565 1567 ACBCAR
loop_
_publ_author_name
'Evans, H.T.jr.'
'Rollins, O.W.'
_cell_length_a 12.195(1)
_cell_length_b 12.637(2)
_cell_length_c 10.558(2)
_cell_angle_alpha 108.11(1)
_cell_angle_beta 98.67(2)
_cell_angle_gamma 111.63(1)
_cell_volume 1371.22
_cell_formula_units_Z 1
_symmetry_space_group_name_H-M 'P -1'
_symmetry_Int_Tables_number 2
_refine_ls_R_factor_all 0.066
loop_
_symmetry_equiv_pos_site_id
_symmetry_equiv_pos_as_xyz
1 '-x, -y, -z'
2 'x, y, z'
loop_
_atom_type_symbol
_atom_type_oxidation_number
W6+ 6
O2- -2
Na1+ 1
H1+ 1
loop_
_atom_site_label
_atom_site_type_symbol
_atom_site_symmetry_multiplicity
_atom_site_Wyckoff_symbol
_atom_site_fract_x
_atom_site_fract_y
_atom_site_fract_z
_atom_site_B_iso_or_equiv
_atom_site_occupancy
_atom_site_attached_hydrogens
W1 W6+ 2 i 0.2828(1) 0.0355(1) 0.2158(1) 0.098(1) 1. 0
W2 W6+ 2 i 0.0071(1) 0.1893(1) -.0939(1) 0.096(1) 1. 0
W3 W6+ 2 i 0.0555(1) 0.1042(1) 0.2955(1) 0.097(1) 1. 0
W4 W6+ 2 i 0.0812(1) 0.4015(1) 0.2712(1) 0.108(1) 1. 0
W5 W6+ 2 i 0.3012(1) 0.3278(1) 0.1898(1) 0.104(1) 1. 0
W6 W6+ 2 i 0.1983(1) -.1742(1) -.1512(1) 0.104(1) 1. 0
O1 O2- 2 i 0.005(2) -.063(2) 0.261(3) 0.14(2) 1. 0
O2 O2- 2 i 0.181(2) -.122(2) 0.200(2) 0.13(2) 1. 0
O3 O2- 2 i 0.224(2) 0.111(2) 0.357(2) 0.14(2) 1. 0
O4 O2- 2 i 0.056(2) 0.319(2) -.129(3) 0.16(2) 1. 0
O5 O2- 2 i 0.039(2) 0.150(2) 0.462(2) 0.13(2) 1. 0
O6 O2- 2 i 0.426(2) 0.062(2) 0.308(2) 0.13(2) 1. 0
O7 O2- 2 i 0.099(2) 0.008(2) 0.104(2) 0.13(2) 1. 0
O8 O2- 2 i 0.147(2) 0.194(2) 0.000(2) 0.11(2) 1. 0
O9 O2- 2 i 0.092(2) -.067(2) -.187(2) 0.10(2) 1. 0
O10 O2- 2 i 0.047(2) -.236(2) -.065(3) 0.09(2) 1. 0
O11 O2- 2 i 0.148(2) 0.253(2) 0.274(2) 0.12(2) 1. 0
O12 O2- 2 i 0.280(2) -.032(2) 0.020(2) 0.12(2) 1. 0
O13 O2- 2 i 0.326(2) 0.186(2) 0.176(2) 0.11(2) 1. 0
O14 O2- 2 i 0.204(2) 0.418(2) 0.178(2) 0.12(2) 1. 0
O15 O2- 2 i 0.054(2) -.301(2) -.316(2) 0.12(2) 1. 0
O16 O2- 2 i 0.392(2) 0.374(2) 0.084(2) 0.15(2) 1. 0
O17 O2- 2 i 0.288(2) -.108(2) -.244(2) 0.13(2) 1. 0
O18 O2- 2 i 0.025(2) 0.497(2) 0.220(2) 0.14(2) 1. 0
O19 O2- 2 i 0.175(2) 0.491(2) 0.442(2) 0.16(2) 1. 0
O20 O2- 2 i 0.260(2) -.273(2) -.119(3) 0.15(2) 1. 0
O21 O2- 2 i 0.399(2) 0.428(2) 0.359(2) 0.14(2) 1. 0
O22 O2- 2 i 0.200(2) 0.649(2) 0.126(2) 0.17(2) 1. 0
O23 O2- 2 i 0.500(3) 0.833(3) 0.136(4) 0.25(2) 1. 0
O24 O2- 2 i 0.385(3) 0.688(3) 0.357(3) 0.19(2) 1. 0
O25 O2- 2 i 0.135(2) 0.736(2) 0.454(3) 0.16(2) 1. 0
O26 O2- 2 i 0.377(3) 0.996(3) 0.543(3) 0.19(2) 1. 0
O27 O2- 2 i 0.387(3) 0.562(3) 0.989(3) 0.20(2) 1. 0
O28 O2- 2 i 0.226(3) 0.127(3) 0.687(3) 0.18(2) 1. 0
O29 O2- 2 i 0.403(2) 0.685(2) 0.702(3) 0.16(2) 1. 0
O30 O2- 2 i 0.379(2) 0.304(2) 0.607(3) 0.18(2) 1. 0
O31 O2- 2 i 0.184(3) 0.423(3) 0.662(3) 0.18(2) 1. 0
Na1 Na1+ 2 i 0.1535(15) 0.9323(15) 0.4693(17) 0.19(1) 1. 0
Na2 Na1+ 2 i 0.3518(15) 0.7994(15) 0.5671(16) 0.18(1) 1. 0
Na3 Na1+ 2 i 0.3717(15) 0.4809(15) 0.5838(17) 0.18(1) 1. 0
Na4 Na1+ 2 i 0.3011(15) 0.1159(15) 0.9017(17) 0.19(1) 1. 0
Na5 Na1+ 2 i 0.1972(15) 0.5252(15) 0.8922(17) 0.17(1) 1. 0
#End of TTdata_95-ICSD
