
#(C) 2019 by FIZ Karlsruhe - Leibniz Institute for Information Infrastructure.  All rights reserved.
data_128-ICSD
_database_code_ICSD 128
_audit_creation_date 1980-01-01
_audit_update_record 2011-08-01
_chemical_name_systematic 'Disamarium sulfate(VI) octahydrate'
_chemical_formula_structural 'Sm2 (S O4)3 (H2 O)8'
_chemical_formula_sum 'H16 O20 S3 Sm2'
_chemical_name_structure_type Pr2(SO4)3(H2O)8
_exptl_crystal_density_diffrn 3.05
_publ_section_title 'Utochnenie kristallicheskoi struktury Sm2 (S O4)3 (H2 O)8'
loop_
_citation_id
_citation_journal_full
_citation_year
_citation_journal_volume
_citation_page_first
_citation_page_last
_citation_journal_id_ASTM
primary 'Zhurnal Strukturnoi Khimii' 1976 17 186 188 ZSTKAI
loop_
_publ_author_name
'Podberezskaya, N.V.'
'Borisov, S.V.'
_cell_length_a 13.43(3)
_cell_length_b 6.72(2)
_cell_length_c 18.13(5)
_cell_angle_alpha 90.
_cell_angle_beta 102.8(5)
_cell_angle_gamma 90.
_cell_volume 1595.56
_cell_formula_units_Z 4
_symmetry_space_group_name_H-M 'C 1 2/c 1'
_symmetry_Int_Tables_number 15
_refine_ls_R_factor_all 0.124
loop_
_symmetry_equiv_pos_site_id
_symmetry_equiv_pos_as_xyz
1 'x, -y, z+1/2'
2 '-x, -y, -z'
3 '-x, y, -z+1/2'
4 'x, y, z'
5 'x+1/2, -y+1/2, z+1/2'
6 '-x+1/2, -y+1/2, -z'
7 '-x+1/2, y+1/2, -z+1/2'
8 'x+1/2, y+1/2, z'
loop_
_atom_type_symbol
_atom_type_oxidation_number
Sm3+ 3
S6+ 6
O2- -2
H1+ 1
loop_
_atom_site_label
_atom_site_type_symbol
_atom_site_symmetry_multiplicity
_atom_site_Wyckoff_symbol
_atom_site_fract_x
_atom_site_fract_y
_atom_site_fract_z
_atom_site_B_iso_or_equiv
_atom_site_occupancy
_atom_site_attached_hydrogens
Sm1 Sm3+ 8 f 0.1676(2) 0.0237(1) 0.3921(1) 0.11 1. 0
S1 S6+ 8 f 0.2830(4) 0.5311(2) 0.4108(2) 0.38 1. 0
S2 S6+ 4 e 0 0.3223(3) 0.25 0.31 1. 0
O1 O2- 8 f 0.199(1) -.321(1) 0.397(1) 0.9 1. 0
O2 O2- 8 f 0.243(1) 0.329(2) 0.419(1) 1.88 1. 0
O3 O2- 8 f 0.337(1) -.535(2) 0.351(1) 1.48 1. 0
O4 O2- 8 f 0.146(1) -.079(2) 0.519(1) 0.64 1. 0
O5 O2- 8 f 0.084(1) 0.196(2) 0.287(1) 1.44 1. 0
O6 O2- 8 f 0.038(1) 0.448(2) 0.199(1) 1.5 1. 0
O7 O2- 8 f 0.016(1) -.166(3) 0.360(1) 1.88 1. 0
O8 O2- 8 f 0.037(1) 0.223(3) 0.436(1) 1.59 1. 0
O9 O2- 8 f 0.346(1) -.022(3) 0.455(1) 1.16 1. 0
O10 O2- 8 f 0.259(1) -.010(3) 0.296(1) 2.36 1. 0
#End of TTdata_128-ICSD
