
#(C) 2019 by FIZ Karlsruhe - Leibniz Institute for Information Infrastructure.  All rights reserved.
data_94-ICSD
_database_code_ICSD 94
_audit_creation_date 1980-01-01
_audit_update_record 2012-02-01
_chemical_name_systematic 'Sulfamic acid'
_chemical_formula_structural 'N H3 S O3'
_chemical_formula_sum 'H3 N1 O3 S1'
_chemical_name_structure_type NH3SO3
_exptl_crystal_density_diffrn 2.13
_publ_section_title 'Refinement of sulphamic acid'
loop_
_citation_id
_citation_journal_full
_citation_year
_citation_journal_volume
_citation_page_first
_citation_page_last
_citation_journal_id_ASTM
primary

;
Acta Crystallographica, Section B: Structural Crystallography and Crystal
Chemistry
; 1976 32 1563 1564 ACBCAR
loop_
_publ_author_name
'Cameron, A.F.'
'Duncanson, F.D.'
_cell_length_a 8.115(2)
_cell_length_b 8.066(2)
_cell_length_c 9.248(2)
_cell_angle_alpha 90.
_cell_angle_beta 90.
_cell_angle_gamma 90.
_cell_volume 605.33
_cell_formula_units_Z 8
_symmetry_space_group_name_H-M 'P b c a'
_symmetry_Int_Tables_number 61
_refine_ls_R_factor_all 0.027
loop_
_symmetry_equiv_pos_site_id
_symmetry_equiv_pos_as_xyz
1 'x+1/2, y, -z+1/2'
2 'x, -y+1/2, z+1/2'
3 '-x+1/2, y+1/2, z'
4 '-x, -y, -z'
5 '-x+1/2, -y, z+1/2'
6 '-x, y+1/2, -z+1/2'
7 'x+1/2, -y+1/2, -z'
8 'x, y, z'
loop_
_atom_type_symbol
_atom_type_oxidation_number
S6+ 6
N3- -3
O2- -2
H1+ 1
loop_
_atom_site_label
_atom_site_type_symbol
_atom_site_symmetry_multiplicity
_atom_site_Wyckoff_symbol
_atom_site_fract_x
_atom_site_fract_y
_atom_site_fract_z
_atom_site_B_iso_or_equiv
_atom_site_occupancy
_atom_site_attached_hydrogens
S1 S6+ 8 c 0.16665(5) 0.09389(5) 0.17077(4) . 1. 0
N1 N3- 8 c 0.04096(17) 0.24085(17) 0.08066(15) . 1. 0
O1 O2- 8 c 0.05922(18) -.04773(17) 0.17735(15) . 1. 0
O2 O2- 8 c 0.30448(17) 0.07669(17) 0.07448(15) . 1. 0
O3 O2- 8 c 0.20034(18) 0.17420(18) 0.30607(14) . 1. 0
H1 H1+ 8 c 0.0947(29) 0.3556(35) 0.0651(32) 0.057 1. 0
H2 H1+ 8 c -.0725(19) 0.2443(25) 0.1303(27) 0.088 1. 0
H3 H1+ 8 c 0.0126(27) 0.1978(28) -.0202(24) 0.06 1. 0
loop_
_atom_site_aniso_label
_atom_site_aniso_type_symbol
_atom_site_aniso_U_11
_atom_site_aniso_U_22
_atom_site_aniso_U_33
_atom_site_aniso_U_12
_atom_site_aniso_U_13
_atom_site_aniso_U_23
S1 S6+ 0.0175 0.0145 0.0144 0.0009 0.0005 0.0005
N1 N3- 0.0198 0.0175 0.0173 0.0025 -.0016 0.0016
O1 O2- 0.0315 0.0174 0.0278 -.0066 -.0008 0.0036
O2 O2- 0.0229 0.0272 0.0272 0.007 0.0075 0.002
O3 O2- 0.0281 0.029 0.0155 0.0019 -.0043 0.0038
#End of TTdata_94-ICSD
