
#(C) 2019 by FIZ Karlsruhe - Leibniz Institute for Information Infrastructure.  All rights reserved.
data_310-ICSD
_database_code_ICSD 310
_audit_creation_date 1980-01-01
_audit_update_record 2012-08-01
_chemical_name_systematic 'Tellurium selenium hexafluoroarsenate(V) (3.7/6.2/2)'
_chemical_formula_structural 'Te3.66 Se6.22 (As F6)2'
_chemical_formula_sum 'As2 F12 Se6.22 Te3.66'
_exptl_crystal_density_diffrn 4.14
_publ_section_title

;
Preparation and crystal structures of ditellurium octaselenium
bis(hexafluoroarsenate)-sulfur dioxide, Te2 Se8 (As F6)2 S O2 and
tetratellurium hexaselenium- bis(hexafluoroarsenate), Te3.7 Se6.3 (As F6)2
;
loop_
_citation_id
_citation_journal_full
_citation_year
_citation_journal_volume
_citation_page_first
_citation_page_last
_citation_journal_id_ASTM
primary 'Inorganic Chemistry' 1976 15 765 770 INOCAJ
loop_
_publ_author_name
'Boldrini, P.'
'Brown, I.'
'Gillespie, R.J.'
'Ireland, P.R.'
'Luk, W.C.'
'Slim, D.R.'
'Vekris, J.E.'
_cell_length_a 14.840(6)
_cell_length_b 10.828(5)
_cell_length_c 13.345(5)
_cell_angle_alpha 90.
_cell_angle_beta 90.
_cell_angle_gamma 90.
_cell_volume 2144.37
_cell_formula_units_Z 4
_symmetry_space_group_name_H-M 'P b c n'
_symmetry_Int_Tables_number 60
_refine_ls_R_factor_all 0.129
loop_
_symmetry_equiv_pos_site_id
_symmetry_equiv_pos_as_xyz
1 'x, -y, z+1/2'
2 '-x+1/2, y+1/2, z'
3 'x+1/2, y+1/2, -z+1/2'
4 '-x, -y, -z'
5 '-x, y, -z+1/2'
6 'x+1/2, -y+1/2, -z'
7 '-x+1/2, -y+1/2, z+1/2'
8 'x, y, z'
loop_
_atom_type_symbol
_atom_type_oxidation_number
Te0+ 0
Se1+ 1
Se0+ 0
Te0+ 0
As5+ 5
F1- -1
loop_
_atom_site_label
_atom_site_type_symbol
_atom_site_symmetry_multiplicity
_atom_site_Wyckoff_symbol
_atom_site_fract_x
_atom_site_fract_y
_atom_site_fract_z
_atom_site_B_iso_or_equiv
_atom_site_occupancy
_atom_site_attached_hydrogens
Te1 Te0+ 8 d 0.3320(2) -.1056(3) 0.2298(2) . 1. 0
Te2 Te0+ 8 d -.4268(23) -.2362(36) 0.1303(23) . 0.5 0
Se1 Se1+ 8 d 0.4380(34) -.2197(50) 0.3612(35) . 1. 0
Se2 Se0+ 8 d 0.4620(3) -.0624(5) 0.1033(4) . 0.5 0
Se3 Se0+ 8 d 0.3331(3) 0.1129(50) 0.3166(3) . 1. 0
Se4 Se0+ 8 d -.4258(9) 0.2366(10) 0.2951(7) . 0.61(3) 0
Te3 Te0+ 8 d 0.4251(12) 0.2447(14) 0.2018(11) . 0.33(2) 0
As1 As5+ 8 d 0.1681(3) 0.0859(5) 0.0174(4) . 1. 0
F1 F1- 8 d 0.0675(20) 0.1455(39) -.0182(29) . 1. 0
F2 F1- 8 d 0.1408(25) 0.0976(52) 0.1392(27) . 1. 0
F3 F1- 8 d 0.1365(26) -.0538(40) 0.0219(37) . 1. 0
F4 F1- 8 d 0.2048(22) 0.2344(35) 0.0244(35) . 1. 0
F5 F1- 8 d 0.2730(24) 0.0331(36) 0.0512(22) . 1. 0
F6 F1- 8 d 0.1965(25) 0.0802(48) -.1027(27) . 1. 0
loop_
_atom_site_aniso_label
_atom_site_aniso_type_symbol
_atom_site_aniso_U_11
_atom_site_aniso_U_22
_atom_site_aniso_U_33
_atom_site_aniso_U_12
_atom_site_aniso_U_13
_atom_site_aniso_U_23
Te3 Te0+ 0.050(4) 0.039(4) 0.047(4) 0.006(3) -.002(3) 0.001(3)
As1 As5+ 0.034(2) 0.051(3) 0.046(3) 0.006(2) 0.005(2) 0.004(2)
F1 F1- 0.037(15) 0.137(35) 0.102(26) 0.018(20) -.005(19) -.023(27)
F2 F1- 0.069(25) 0.263(57) 0.058(22) 0.040(33) 0.011(19) -.026(31)
F3 F1- 0.079(26) 0.088(33) 0.17(44) 0.042(25) -.004(29) 0.033(35)
F4 F1- 0.049(19) 0.087(25) 0.175(39) 0.031(20) 0.021(24) -.013(28)
F5 F1- 0.100(28) 0.127(31) 0.047(18) 0.074(24) -.017(18) 0.033(19)
F6 F1- 0.085(27) 0.290(52) 0.075(24) 0.127(33) 0.052(22) 0.084(31)
#End of TTdata_310-ICSD
