
#(C) 2019 by FIZ Karlsruhe - Leibniz Institute for Information Infrastructure.  All rights reserved.
data_344-ICSD
_database_code_ICSD 344
_audit_creation_date 1980-01-01
_audit_update_record 2013-02-01
_chemical_name_systematic 'Aluminium strontium (1/1)'
_chemical_formula_structural 'Sr Al'
_chemical_formula_sum 'Al1 Sr1'
_exptl_crystal_density_diffrn 2.94
_publ_section_title 'The crystal structure of Sr Al'
loop_
_citation_id
_citation_journal_full
_citation_year
_citation_journal_volume
_citation_page_first
_citation_page_last
_citation_journal_id_ASTM
primary

;
Acta Crystallographica, Section B: Structural Crystallography and Crystal
Chemistry
; 1976 32 1864 1867 ACBCAR
loop_
_publ_author_name
'Fornasini, M.L.'
'Merlo, F.'
_cell_length_a 12.753
_cell_length_b 12.753
_cell_length_c 12.753
_cell_angle_alpha 90.
_cell_angle_beta 90.
_cell_angle_gamma 90.
_cell_volume 2074.14
_cell_formula_units_Z 32
_symmetry_space_group_name_H-M 'P 21 3'
_symmetry_Int_Tables_number 198
_refine_ls_R_factor_all 0.127
loop_
_symmetry_equiv_pos_site_id
_symmetry_equiv_pos_as_xyz
1 '-z+1/2, -x, y+1/2'
2 '-y+1/2, -z, x+1/2'
3 '-x+1/2, -y, z+1/2'
4 '-z, x+1/2, -y+1/2'
5 '-y, z+1/2, -x+1/2'
6 '-x, y+1/2, -z+1/2'
7 'z+1/2, -x+1/2, -y'
8 'y+1/2, -z+1/2, -x'
9 'x+1/2, -y+1/2, -z'
10 'z, x, y'
11 'y, z, x'
12 'x, y, z'
loop_
_atom_type_symbol
_atom_type_oxidation_number
Sr0+ 0
Al0+ 0
loop_
_atom_site_label
_atom_site_type_symbol
_atom_site_symmetry_multiplicity
_atom_site_Wyckoff_symbol
_atom_site_fract_x
_atom_site_fract_y
_atom_site_fract_z
_atom_site_B_iso_or_equiv
_atom_site_occupancy
_atom_site_attached_hydrogens
Sr1 Sr0+ 12 b 0.196(2) 0.436(1) 0.995(1) 0 1. 0
Sr2 Sr0+ 12 b 0.477(1) 0.294(2) 0.063(1) 0 1. 0
Sr3 Sr0+ 4 a 0.186(1) 0.186(1) 0.186(1) 0 1. 0
Sr4 Sr0+ 4 a 0.819(1) 0.819(1) 0.819(1) 0 1. 0
Al1 Al0+ 12 b 0.241(4) 0.811(5) 0.426(5) 0 1. 0
Al2 Al0+ 12 b 0.252(4) 0.321(5) 0.416(5) 0 1. 0
Al3 Al0+ 4 a 0.576(5) 0.576(5) 0.576(5) 0 1. 0
Al4 Al0+ 4 a 0.962(4) 0.962(4) 0.962(4) 0 1. 0
#End of TTdata_344-ICSD
