
#(C) 2019 by FIZ Karlsruhe - Leibniz Institute for Information Infrastructure.  All rights reserved.
data_130-ICSD
_database_code_ICSD 130
_audit_creation_date 1980-01-01
_audit_update_record 2007-08-01
_chemical_name_systematic 'Pentacadmium tris(phosphate(V)) chloride'
_chemical_formula_structural 'Cd5 (P O4)3 Cl'
_chemical_formula_sum 'Cd5 Cl1 O12 P3'
_exptl_crystal_density_diffrn 5.62
_publ_section_title 'Kristallicheskaya struktura Cd-khlorapatita Cd5 (P O4)3 Cl'
loop_
_citation_id
_citation_journal_full
_citation_year
_citation_journal_volume
_citation_page_first
_citation_page_last
_citation_journal_id_ASTM
primary 'Zhurnal Strukturnoi Khimii' 1976 17 375 378 ZSTKAI
loop_
_publ_author_name
'Ivanov, A.'
'Simonov, M.A.'
'Belov, N.'
_cell_length_a 9.625(4)
_cell_length_b 9.625(4)
_cell_length_c 6.504(2)
_cell_angle_alpha 90.
_cell_angle_beta 90.
_cell_angle_gamma 120.
_cell_volume 521.81
_cell_formula_units_Z 2
_symmetry_space_group_name_H-M 'P 63/m'
_symmetry_Int_Tables_number 176
_refine_ls_R_factor_all 0.075
loop_
_symmetry_equiv_pos_site_id
_symmetry_equiv_pos_as_xyz
1 '-x+y, -x, -z+1/2'
2 '-y, x-y, -z+1/2'
3 'x, y, -z+1/2'
4 'x-y, x, -z'
5 'y, -x+y, -z'
6 '-x, -y, -z'
7 'x-y, x, z+1/2'
8 'y, -x+y, z+1/2'
9 '-x, -y, z+1/2'
10 '-x+y, -x, z'
11 '-y, x-y, z'
12 'x, y, z'
loop_
_atom_type_symbol
_atom_type_oxidation_number
Cd2+ 2
P5+ 5
O2- -2
Cl1- -1
loop_
_atom_site_label
_atom_site_type_symbol
_atom_site_symmetry_multiplicity
_atom_site_Wyckoff_symbol
_atom_site_fract_x
_atom_site_fract_y
_atom_site_fract_z
_atom_site_B_iso_or_equiv
_atom_site_occupancy
_atom_site_attached_hydrogens
Cd1 Cd2+ 6 h 0.2537(2) -.0141(2) 0.25 . 1. 0
Cd2 Cd2+ 4 f 0.3333 0.6666 -.0044(2) . 1. 0
P1 P5+ 6 h 0.3762(5) 0.4035(5) 0.25 . 1. 0
O1 O2- 6 h 0.5016(14) 0.3462(17) 0.25 . 1. 0
O2 O2- 6 h 0.4589(14) 0.5882(14) 0.25 . 1. 0
O3 O2- 12 i 0.261(1) 0.3438(12) 0.0631(13) . 1. 0
Cl1 Cl1- 2 a 0 0 0.25 . 1. 0
loop_
_atom_site_aniso_label
_atom_site_aniso_type_symbol
_atom_site_aniso_B_11
_atom_site_aniso_B_22
_atom_site_aniso_B_33
_atom_site_aniso_B_12
_atom_site_aniso_B_13
_atom_site_aniso_B_23
Cd1 Cd2+ 1.35 0.73 0.52 0.38 0 0
Cd2 Cd2+ 0.62 0.62 -.03 0.31 0 0
P1 P5+ 0.31 0.29 0.29 0.31 0 0
O1 O2- 0.5 1.67 0.9 0.94 0 0
O2 O2- 0.49 0.17 1.93 0.19 0 0
O3 O2- 0.73 1.84 0.3 0.63 -.29 -.39
Cl1 Cl1- 3.37 3.37 13.3 1.68 0 0
#End of TTdata_130-ICSD
