
#(C) 2019 by FIZ Karlsruhe - Leibniz Institute for Information Infrastructure.  All rights reserved.
data_239-ICSD
_database_code_ICSD 239
_audit_creation_date 1980-01-01
_audit_update_record 2015-02-01
_chemical_name_systematic 'Copper selenide (3/2)'
_chemical_formula_structural 'Cu3 Se2'
_chemical_formula_sum 'Cu3 Se2'
_chemical_name_structure_type Cu3Se2
_chemical_name_mineral Umangite
_exptl_crystal_density_diffrn 6.6
_publ_section_title

;
Crystal structures of Cu1.8 Se, Cu3 Se2, alpha- and gamma-Cu Se2, and Cu Se2
II
;
loop_
_citation_id
_citation_journal_full
_citation_year
_citation_journal_volume
_citation_page_first
_citation_page_last
_citation_journal_id_ASTM
primary 'Canadian Journal of Chemistry' 1976 54 841 848 CJCHAG
loop_
_publ_author_name
'Heyding, R.'
'MacLaren Murray, R.'
_cell_length_a 6.4024(5)
_cell_length_b 6.4024(5)
_cell_length_c 4.2786(5)
_cell_angle_alpha 90.
_cell_angle_beta 90.
_cell_angle_gamma 90.
_cell_volume 175.38
_cell_formula_units_Z 2
_symmetry_space_group_name_H-M 'P -4 21 m'
_symmetry_Int_Tables_number 113
_refine_ls_R_factor_all 0.061
loop_
_symmetry_equiv_pos_site_id
_symmetry_equiv_pos_as_xyz
1 '-y+1/2, -x+1/2, z'
2 'y, -x, -z'
3 'y+1/2, x+1/2, z'
4 '-y, x, -z'
5 'x+1/2, -y+1/2, -z'
6 '-x, -y, z'
7 '-x+1/2, y+1/2, -z'
8 'x, y, z'
loop_
_atom_type_symbol
_atom_type_oxidation_number
Cu0+ 0
Se0+ 0
loop_
_atom_site_label
_atom_site_type_symbol
_atom_site_symmetry_multiplicity
_atom_site_Wyckoff_symbol
_atom_site_fract_x
_atom_site_fract_y
_atom_site_fract_z
_atom_site_B_iso_or_equiv
_atom_site_occupancy
_atom_site_attached_hydrogens
Cu1 Cu0+ 2 a 0 0 0 2.3 1. 0
Cu2 Cu0+ 4 e 0.647(5) 0.853(5) 0.219(4) 2.3 1. 0
Se1 Se0+ 4 e 0.272(3) 0.772(3) 0.264(7) 1.9 1. 0
#End of TTdata_239-ICSD
