
#(C) 2019 by FIZ Karlsruhe - Leibniz Institute for Information Infrastructure.  All rights reserved.
data_180-ICSD
_database_code_ICSD 180
_audit_creation_date 1980-01-01
_audit_update_record 2010-08-01
_chemical_name_systematic 'Boron carbide (13.78/1.48)'
_chemical_formula_structural 'B13.777 C1.484'
_chemical_formula_sum 'C1.484 B13.777'
_chemical_name_structure_type B13C2
_exptl_crystal_density_diffrn 2.46
_publ_section_title 'The crystal structure of a boron-rich boron carbide'
loop_
_citation_id
_citation_journal_full
_citation_year
_citation_journal_volume
_citation_page_first
_citation_page_last
_citation_journal_id_ASTM
primary

;
Acta Crystallographica, Section B: Structural Crystallography and Crystal
Chemistry
; 1975 31 1797 1806 ACBCAR
loop_
_publ_author_name
'Yakel, H.L.jr.'
_cell_length_a 5.6720(1)
_cell_length_b 5.6720(1)
_cell_length_c 12.1428(2)
_cell_angle_alpha 90.
_cell_angle_beta 90.
_cell_angle_gamma 120.
_cell_volume 338.32
_cell_formula_units_Z 3
_symmetry_space_group_name_H-M 'R -3 m H'
_symmetry_Int_Tables_number 166
_refine_ls_R_factor_all 0.0645
loop_
_symmetry_equiv_pos_site_id
_symmetry_equiv_pos_as_xyz
1 'x-y, -y, -z'
2 '-x, -x+y, -z'
3 'y, x, -z'
4 'x-y, x, -z'
5 'y, -x+y, -z'
6 '-x, -y, -z'
7 '-x+y, y, z'
8 'x, x-y, z'
9 '-y, -x, z'
10 '-x+y, -x, z'
11 '-y, x-y, z'
12 'x, y, z'
13 'x-y+2/3, -y+1/3, -z+1/3'
14 '-x+2/3, -x+y+1/3, -z+1/3'
15 'y+2/3, x+1/3, -z+1/3'
16 'x-y+2/3, x+1/3, -z+1/3'
17 'y+2/3, -x+y+1/3, -z+1/3'
18 '-x+2/3, -y+1/3, -z+1/3'
19 '-x+y+2/3, y+1/3, z+1/3'
20 'x+2/3, x-y+1/3, z+1/3'
21 '-y+2/3, -x+1/3, z+1/3'
22 '-x+y+2/3, -x+1/3, z+1/3'
23 '-y+2/3, x-y+1/3, z+1/3'
24 'x+2/3, y+1/3, z+1/3'
25 'x-y+1/3, -y+2/3, -z+2/3'
26 '-x+1/3, -x+y+2/3, -z+2/3'
27 'y+1/3, x+2/3, -z+2/3'
28 'x-y+1/3, x+2/3, -z+2/3'
29 'y+1/3, -x+y+2/3, -z+2/3'
30 '-x+1/3, -y+2/3, -z+2/3'
31 '-x+y+1/3, y+2/3, z+2/3'
32 'x+1/3, x-y+2/3, z+2/3'
33 '-y+1/3, -x+2/3, z+2/3'
34 '-x+y+1/3, -x+2/3, z+2/3'
35 '-y+1/3, x-y+2/3, z+2/3'
36 'x+1/3, y+2/3, z+2/3'
loop_
_atom_type_symbol
_atom_type_oxidation_number
B0+ 0
C0+ 0
loop_
_atom_site_label
_atom_site_type_symbol
_atom_site_symmetry_multiplicity
_atom_site_Wyckoff_symbol
_atom_site_fract_x
_atom_site_fract_y
_atom_site_fract_z
_atom_site_B_iso_or_equiv
_atom_site_occupancy
_atom_site_attached_hydrogens
B1 B0+ 18 h -.16378(9) 0.16378(9) 0.35934(6) . 1. 0
B2 B0+ 18 h -.10709(9) 0.10709(9) 0.11354(7) . 1. 0
B3 B0+ 3 b 0 0 0.5 . 0.742(5) 0
B4 B0+ 6 c 0 0 0.4146(4) . 0.259(5) 0
B5 B0+ 36 i 0.264(2) 0.051(3) 0.501(2) . 0.0431(5) 0
C1 C0+ 6 c 0 0 0.3816(1) . 0.742(5) 0
loop_
_atom_site_aniso_label
_atom_site_aniso_type_symbol
_atom_site_aniso_beta_11
_atom_site_aniso_beta_22
_atom_site_aniso_beta_33
_atom_site_aniso_beta_12
_atom_site_aniso_beta_13
_atom_site_aniso_beta_23
B1 B0+ 0.00379(8) 0.00379(8) 0.00075(2) 0.00179(9) -.00016(2) 0.00016
B2 B0+ 0.00475(9) 0.00475(9) 0.00060(2) 0.0024(1) 0.00005(2) -.00005
B3 B0+ 0.0055(3) 0.0055(3) 0.00092(6) 0.00275 0 0
B4 B0+ 0.0058(6) 0.0058(6) 0.0008(2) 0.0029 0 0
B5 B0+ 0.008(3) 0.039(9) 0.0004(3) 0.014(4) 0.000(1) 0.001(2)
C1 C0+ 0.0029(1) 0.0029(1) 0.00088(5) 0.00145 0 0
#End of TTdata_180-ICSD
