
#(C) 2019 by FIZ Karlsruhe - Leibniz Institute for Information Infrastructure.  All rights reserved.
data_299-ICSD
_database_code_ICSD 299
_audit_creation_date 1980-01-01
_audit_update_record 2000-07-15
_chemical_name_systematic 'Potassium aluminium cobalt oxide (12.5/21.7/0.2/38)'
_chemical_formula_structural 'K2.7 Al21.7 Co0.2 O33.8'
_chemical_formula_sum 'Al21.7 Co0.2 K2.7 O33.8'
_chemical_name_structure_type HAl11O17
_exptl_crystal_density_diffrn 3.34
_publ_section_title

;
Structural determinations of single-crystal K beta-alumina and cobalt-doped K
beta-alumina
;
loop_
_citation_id
_citation_journal_full
_citation_year
_citation_journal_volume
_citation_page_first
_citation_page_last
_citation_journal_id_ASTM
primary 'Journal of Solid State Chemistry' 1976 17 245 253 JSSCBI
loop_
_publ_author_name
'Dernier, P.D.'
'Remeika, J.P.'
_cell_length_a 5.605(1)
_cell_length_b 5.605(1)
_cell_length_c 22.7219(20)
_cell_angle_alpha 90.
_cell_angle_beta 90.
_cell_angle_gamma 120.
_cell_volume 618.2
_cell_formula_units_Z 1
_symmetry_space_group_name_H-M 'P 63/m m c'
_symmetry_Int_Tables_number 194
_refine_ls_R_factor_all 0.061
loop_
_symmetry_equiv_pos_site_id
_symmetry_equiv_pos_as_xyz
1 'x, x-y, -z+1/2'
2 '-x+y, y, -z+1/2'
3 '-y, -x, -z+1/2'
4 '-x+y, -x, -z+1/2'
5 '-y, x-y, -z+1/2'
6 'x, y, -z+1/2'
7 '-x, -x+y, z+1/2'
8 'x-y, -y, z+1/2'
9 'y, x, z+1/2'
10 'x-y, x, z+1/2'
11 'y, -x+y, z+1/2'
12 '-x, -y, z+1/2'
13 '-x, -x+y, -z'
14 'x-y, -y, -z'
15 'y, x, -z'
16 'x-y, x, -z'
17 'y, -x+y, -z'
18 '-x, -y, -z'
19 'x, x-y, z'
20 '-x+y, y, z'
21 '-y, -x, z'
22 '-x+y, -x, z'
23 '-y, x-y, z'
24 'x, y, z'
loop_
_atom_type_symbol
_atom_type_oxidation_number
Al3+ 3
Co2+ 2
Al3+ 3
O2- -2
K1+ 1
loop_
_atom_site_label
_atom_site_type_symbol
_atom_site_symmetry_multiplicity
_atom_site_Wyckoff_symbol
_atom_site_fract_x
_atom_site_fract_y
_atom_site_fract_z
_atom_site_B_iso_or_equiv
_atom_site_occupancy
_atom_site_attached_hydrogens
Al1 Al3+ 12 k 0.83223(6) 0.66446 0.10505(5) . 1. 0
Al2 Al3+ 4 f 0.3333 0.6667 0.02446(5) . 0.925 0
Co1 Co2+ 4 f 0.3333 0.6667 0.02446(5) . 0.05 0
Al3 Al3+ 4 f 0.3333 0.6667 0.17465(6) . 1. 0
Al4 Al3+ 2 a 0 0 0 . 1. 0
O1 O2- 12 k 0.1564(1) 0.3128 0.04970(9) . 1. 0
O2 O2- 12 k 0.5030(1) 0.006 0.14591(9) . 1. 0
O3 O2- 4 f 0.6667 0.3333 0.0554(1) . 1. 0
O4 O2- 4 e 0 0 0.1414(1) . 1. 0
O5 O2- 6 h 0.3128(8) 0.6256 0.25 . 0.3 0
K1 K1+ 6 h 0.6883(6) 0.3766 0.25 . 0.243 0
K2 K1+ 6 h 0.8850(6) 0.77 0.25 . 0.203 0
loop_
_atom_site_aniso_label
_atom_site_aniso_type_symbol
_atom_site_aniso_beta_11
_atom_site_aniso_beta_22
_atom_site_aniso_beta_33
_atom_site_aniso_beta_12
_atom_site_aniso_beta_13
_atom_site_aniso_beta_23
Al1 Al3+ 0.0050(2) 0.043(3) 0.00024(2) 0 0 -.00003(3)
Al2 Al3+ 0.0055(4) 0.0055(4) 0.00023(2) 0 0 0
Co1 Co2+ 0.0055(4) 0.0055(4) 0.00023(2) 0 0 0
Al3 Al3+ 0.0006(5) 0.006(5) 0.0007(2) 0 0 0
Al4 Al3+ 0.0006(5) 0.0050(5) 0.00019(3) 0 0 0
O1 O2- 0.057(4) 0.0035(5) 0.00027(4) 0 0 -.00026(7)
O2 O2- 0.0045(4) 0.0050(5) 0.00031(3) 0 0 -.00007(7)
O3 O2- 0.004(8) 0.004(8) 0.0027(4) 0 0 0
O4 O2- 0.0030(8) 0.0030(8) 0.00028(5) 0 0 0
O5 O2- 0.004(1) 0.001(3) 0.00002(7) 0 0 0
K1 K1+ 0.0127(6) 0.017(2) 0.000220(4) 0 0 0
K2 K1+ 0.016(1) 0.023(2) 0.00028(5) 0 0 0
#End of TTdata_299-ICSD
