
#(C) 2019 by FIZ Karlsruhe - Leibniz Institute for Information Infrastructure.  All rights reserved.
data_74-ICSD
_database_code_ICSD 74
_audit_creation_date 1980-01-01
_audit_update_record 2011-08-01
_chemical_name_systematic 'Iron manganese germanide (3/4/6)'
_chemical_formula_structural 'Fe3 Mn4 Ge6'
_chemical_formula_sum 'Fe3 Ge6 Mn4'
_chemical_name_structure_type Fe6Ge6Mg
_exptl_crystal_density_diffrn 7.45
_publ_section_title

;
Structures cristallines de deux nouveaux germaniures ternaires: (Fe, Mn)7 Ge6
et (Co, Mn)7 Ge6
;
loop_
_citation_id
_citation_journal_full
_citation_year
_citation_journal_volume
_citation_page_first
_citation_page_last
_citation_journal_id_ASTM
primary

;
Acta Crystallographica, Section B: Structural Crystallography and Crystal
Chemistry
; 1976 32 1352 1355 ACBCAR
loop_
_publ_author_name
'Malaman, B.'
'Roques, B.'
'Courtois, A.'
'Protas, J.'
_cell_length_a 5.120(5)
_cell_length_b 5.120(5)
_cell_length_c 8.083(5)
_cell_angle_alpha 90.
_cell_angle_beta 90.
_cell_angle_gamma 120.
_cell_volume 183.5
_cell_formula_units_Z 1
_symmetry_space_group_name_H-M 'P 6/m m m'
_symmetry_Int_Tables_number 191
_refine_ls_R_factor_all 0.063
loop_
_symmetry_equiv_pos_site_id
_symmetry_equiv_pos_as_xyz
1 '-x, -x+y, -z'
2 'x-y, -y, -z'
3 'y, x, -z'
4 '-x+y, -x, -z'
5 '-y, x-y, -z'
6 'x, y, -z'
7 'x, x-y, -z'
8 '-x+y, y, -z'
9 '-y, -x, -z'
10 'x-y, x, -z'
11 'y, -x+y, -z'
12 '-x, -y, -z'
13 'x, x-y, z'
14 '-x+y, y, z'
15 '-y, -x, z'
16 'x-y, x, z'
17 'y, -x+y, z'
18 '-x, -y, z'
19 '-x, -x+y, z'
20 'x-y, -y, z'
21 'y, x, z'
22 '-x+y, -x, z'
23 '-y, x-y, z'
24 'x, y, z'
loop_
_atom_type_symbol
_atom_type_oxidation_number
Fe0+ 0
Mn0+ 0
Ge0+ 0
Fe0+ 0
Mn0+ 0
loop_
_atom_site_label
_atom_site_type_symbol
_atom_site_symmetry_multiplicity
_atom_site_Wyckoff_symbol
_atom_site_fract_x
_atom_site_fract_y
_atom_site_fract_z
_atom_site_B_iso_or_equiv
_atom_site_occupancy
_atom_site_attached_hydrogens
Fe1 Fe0+ 6 i 0.5 0 0.2509(3) 0 0.4286 0
Mn1 Mn0+ 1 b 0 0 0.5 0.66 0.5714 0
Ge1 Ge0+ 2 c 0.3333 0.6666 0 0.09 1. 0
Ge2 Ge0+ 2 d 0.3333 0.6666 0.5 0.12 1. 0
Ge3 Ge0+ 2 e 0 0 0.1623 0.07 1. 0
Fe2 Fe0+ 1 b 0 0 0.5 0 0.4286 0
Mn2 Mn0+ 6 i 0.5 0 0.2509(3) 0.66 0.5714 0
#End of TTdata_74-ICSD
