
#(C) 2019 by FIZ Karlsruhe - Leibniz Institute for Information Infrastructure.  All rights reserved.
data_166-ICSD
_database_code_ICSD 166
_audit_creation_date 1980-01-01
_audit_update_record 2012-08-01
_chemical_name_systematic
'Zinc silver hydrogen catena-triphosphate(V) hydrate (2/0.62/0.38/1/9)'
_chemical_formula_structural 'Zn2 Ag0.62 H0.38 (P3 O10) (H2 O)9'
_chemical_formula_sum 'H18.38 Ag0.62 O19 P3 Zn2'
_chemical_name_structure_type NaZn2P3O10(H2O)9
_exptl_crystal_density_diffrn 2.35
_publ_section_title

;
Structure cristalline d'un tripolyphosphate acide mixte zinc-argent
nonahydrate: Zn2 Ag0.62 H0.38 P3 O10 (H2 O)9
;
loop_
_citation_id
_citation_journal_full
_citation_year
_citation_journal_volume
_citation_page_first
_citation_page_last
_citation_journal_id_ASTM
primary

;
Acta Crystallographica, Section B: Structural Crystallography and Crystal
Chemistry
; 1976 32 2270 2274 ACBCAR
loop_
_publ_author_name
'Averbuch-Pouchot, M.T.'
'Guitel, J.C.'
_cell_length_a 10.473(4)
_cell_length_b 10.683(5)
_cell_length_c 8.629(3)
_cell_angle_alpha 101.08(1)
_cell_angle_beta 109.81(1)
_cell_angle_gamma 98.87(1)
_cell_volume 865.86
_cell_formula_units_Z 2
_symmetry_space_group_name_H-M 'P -1'
_symmetry_Int_Tables_number 2
_refine_ls_R_factor_all 0.041
loop_
_symmetry_equiv_pos_site_id
_symmetry_equiv_pos_as_xyz
1 '-x, -y, -z'
2 'x, y, z'
loop_
_atom_type_symbol
_atom_type_oxidation_number
Zn2+ 2
Ag1+ 1
P5+ 5
O2- -2
H1+ 1
loop_
_atom_site_label
_atom_site_type_symbol
_atom_site_symmetry_multiplicity
_atom_site_Wyckoff_symbol
_atom_site_fract_x
_atom_site_fract_y
_atom_site_fract_z
_atom_site_B_iso_or_equiv
_atom_site_occupancy
_atom_site_attached_hydrogens
Zn1 Zn2+ 1 a 0 0 0 . 1. 0
Zn2 Zn2+ 1 h 0.5 0.5 0.5 . 1. 0
Zn3 Zn2+ 2 i 0.49618(3) 0.04802(3) 0.76801(4) . 1. 0
Ag1 Ag1+ 2 i 0.02347(6) 0.14238(5) 0.41954(7) . 0.62 0
P1 P5+ 2 i 0.28901(7) 0.06500(6) 0.96031(9) . 1. 0
P2 P5+ 2 i 0.28297(7) 0.22409(6) 0.27121(9) . 1. 0
P3 P5+ 2 i 0.54975(7) 0.20593(6) 0.50696(8) . 1. 0
O1 O2- 2 i 0.1318(2) 0.0281(2) 0.8766(3) . 1. 0
O2 O2- 2 i 0.3581(2) 0.1101(2) 0.8459(3) . 1. 0
O3 O2- 2 i 0.6536(2) 0.0404(2) 0.9625(3) . 1. 0
O4 O2- 2 i 0.3341(2) 0.1964(2) 0.1159(3) . 1. 0
O5 O2- 2 i 0.1374(2) 0.1459(2) 0.2189(3) . 1. 0
O6 O2- 2 i 0.3115(2) 0.3688(2) 0.3377(3) . 1. 0
O7 O2- 2 i 0.3803(2) 0.1636(2) 0.4084(3) . 1. 0
O8 O2- 2 i 0.6042(2) 0.1185(2) 0.3961(3) . 1. 0
O9 O2- 2 i 0.5762(2) 0.1765(2) 0.6774(3) . 1. 0
O10 O2- 2 i 0.5999(2) 0.3489(2) 0.5243(3) . 1. 0
O11 O2- 2 i 0.9045(2) 0.1471(2) 0.8992(3) . 1. 0
O12 O2- 2 i 0.4445(2) 0.4848(2) 0.7154(3) . 1. 0
O13 O2- 2 i 0.2179(3) 0.2796(3) 0.6786(4) . 1. 0
O14 O2- 2 i 0.9180(5) 0.3233(5) 0.3853(6) . 1. 0
O15 O2- 2 i 0.8724(3) 0.0610(3) 0.5479(3) . 1. 0
O16 O2- 2 i 0.6914(4) 0.4345(3) 0.9201(4) . 1. 0
O17 O2- 2 i 0.6609(4) 0.3106(3) 0.1590(5) . 1. 0
O18 O2- 2 i 0.0716(3) 0.3656(3) 0.8927(4) . 1. 0
O19 O2- 2 i 0.9066(4) 0.4842(5) 0.6707(6) . 1. 0
loop_
_atom_site_aniso_label
_atom_site_aniso_type_symbol
_atom_site_aniso_beta_11
_atom_site_aniso_beta_22
_atom_site_aniso_beta_33
_atom_site_aniso_beta_12
_atom_site_aniso_beta_13
_atom_site_aniso_beta_23
Zn1 Zn2+ 0.00277(4) 0.00352(4) 0.00500(7) 0.00015(3) 0.00117(4) 0.00077(4)
Zn2 Zn2+ 0.00362(4) 0.00227(4) 0.00639(7) 0.00047(3) 0.00130(4) 0.00092(4)
Zn3 Zn2+ 0.00363(3) 0.00322(3) 0.00529(5) 0.00124(2) 0.00199(3) 0.00146(3)
Ag1 Ag1+ 0.01091(6) 0.00944(5) 0.01434(9) 0.00165(4) 0.00814(6) 0.00220(5)
P1 P5+ 0.00260(6) 0.00279(5) 0.00411(10) 0.00087(5) 0.00140(6) 0.00101(6)
P2 P5+ 0.00241(6) 0.00214(5) 0.00467(9) 0.00034(5) 0.00126(6) 0.00024(6)
P3 P5+ 0.00287(6) 0.00195(5) 0.00446(9) 0.00043(5) 0.00122(6) 0.00085(6)
O1 O2- 0.00285(20) 0.00453(18) 0.00481(30) 0.00080(15) 0.0011(2) 0.00096(19)
O2 O2- 0.00437(21) 0.00450(19) 0.00686(32) 0.00189(16) 0.00367(21) 0.00203(20)
O3 O2- 0.00470(21) 0.00402(19) 0.00684(32) 0.00181(16) 0.00058(22) 0.00222(20)
O4 O2- 0.00378(21) 0.00323(18) 0.00582(31) 0.00011(15) 0.00243(20) 0.00020(19)
O5 O2- 0.00279(21) 0.00372(18) 0.00532(31) -.00036(15) 0.00152(20) 0.00001(19)
O6 O2- 0.00401(21) 0.00259(18) 0.00752(32) 0.00108(16) 0.00123(21) 0.00001(19)
O7 O2- 0.00284(20) 0.00325(18) 0.00689(30) 0.00031(15) 0.00114(20) 0.00156(18)
O8 O2- 0.00424(23) 0.0038(2) 0.00900(34) 0.00127(17) 0.00223(22) -.00069(21)
O9 O2- 0.00536(22) 0.00537(21) 0.00618(31) -.00040(17) 0.00099(21) 0.00330(21)
O10 O2- 0.00376(19) 0.00240(16) 0.00992(35) 0.00056(14) 0.00186(21) 0.00168(19)
O11 O2- 0.00542(23) 0.00512(21) 0.01087(39) 0.00208(18) 0.00282(24) 0.00310(23)
O12 O2- 0.00732(27) 0.00626(23) 0.00939(38) 0.0017(2) 0.00426(26) 0.00304(24)
O13 O2- 0.00931(32) 0.00828(29) 0.01557(52) 0.00303(25) 0.00542(34) 0.00657(32)
O14 O2- 0.02175(75) 0.01680(63) 0.345(12) 0.00895(55) 0.01107(77) 0.01336(73)
O15 O2- 0.00700(28) 0.00984(30) 0.01035(42) 0.00274(23) 0.00373(28) 0.00485(29)
O16 O2- 0.01439(47) 0.01043(38) 0.01210(53) 0.00211(33) -.00015(40) -.0012(4)
O17 O2- 0.01660(54) 0.00779(34) 0.02737(87) 0.00134(34) 0.01062(57) 0.00242(43)
O18 O2- 0.01132(39) 0.00723(30) 0.02089(67) 0.00097(27) 0.00604(42) 0.00360(36)
O19 O2- 0.1097(45) 0.2294(68) 0.0314(10) 0.00995(46) 0.00907(55) 0.01482(70)
#End of TTdata_166-ICSD
