
#(C) 2019 by FIZ Karlsruhe - Leibniz Institute for Information Infrastructure.  All rights reserved.
data_260-ICSD
_database_code_ICSD 260
_audit_creation_date 1980-01-01
_audit_update_record 2005-10-01
_chemical_name_systematic 'Calcium dialuminium oxide'
_chemical_formula_structural 'Ca Al2 O4'
_chemical_formula_sum 'Al2 Ca1 O4'
_chemical_name_structure_type NaBePO4
_exptl_crystal_density_diffrn 2.94
_publ_section_title 'Zur Kristallstruktur von Ca Al2 O4'
loop_
_citation_id
_citation_journal_full
_citation_year
_citation_journal_volume
_citation_page_first
_citation_page_last
_citation_journal_id_ASTM
primary 'Journal of Inorganic and Nuclear Chemistry' 1976 38 983 984 JINCAO
loop_
_publ_author_name
'Hoerkner, W.'
'Mueller Buschbaum, H.'
_cell_length_a 8.7
_cell_length_b 8.092
_cell_length_c 15.191
_cell_angle_alpha 90.
_cell_angle_beta 90.17
_cell_angle_gamma 90.
_cell_volume 1069.45
_cell_formula_units_Z 12
_symmetry_space_group_name_H-M 'P 1 21/n 1'
_symmetry_Int_Tables_number 14
_refine_ls_R_factor_all 0.055
loop_
_symmetry_equiv_pos_site_id
_symmetry_equiv_pos_as_xyz
1 '-x+1/2, y+1/2, -z+1/2'
2 '-x, -y, -z'
3 'x+1/2, -y+1/2, z+1/2'
4 'x, y, z'
loop_
_atom_type_symbol
_atom_type_oxidation_number
Ca2+ 2
Al3+ 3
O2- -2
loop_
_atom_site_label
_atom_site_type_symbol
_atom_site_symmetry_multiplicity
_atom_site_Wyckoff_symbol
_atom_site_fract_x
_atom_site_fract_y
_atom_site_fract_z
_atom_site_B_iso_or_equiv
_atom_site_occupancy
_atom_site_attached_hydrogens
Ca1 Ca2+ 4 e 0.2388 0.0343 0.0893 0.5 1. 0
Ca2 Ca2+ 4 e 0.2686 0.4702 0.0709 0.62 1. 0
Ca3 Ca2+ 4 e 0.7396 0.5286 0.247 0.94 1. 0
Al1 Al3+ 4 e 0.4241 0.3268 0.2385 0.48 1. 0
Al2 Al3+ 4 e 0.4192 0.7244 0.2329 0.44 1. 0
Al3 Al3+ 4 e 0.5987 0.8289 0.0781 0.39 1. 0
Al4 Al3+ 4 e 0.6126 0.2193 0.0806 0.52 1. 0
Al5 Al3+ 4 e 0.9352 0.7276 0.0917 0.43 1. 0
Al6 Al3+ 4 e 0.94 0.3341 0.0921 0.55 1. 0
O1 O2- 4 e 0.077 0.24 0.023 0.39 1. 0
O2 O2- 4 e 0.016 0.532 0.111 0.56 1. 0
O3 O2- 4 e 0.054 0.863 0.149 0.51 1. 0
O4 O2- 4 e 0.246 0.246 0.204 0.29 1. 0
O5 O2- 4 e 0.436 0.26 0.027 0.49 1. 0
O6 O2- 4 e 0.43 0.853 0.141 0.52 1. 0
O7 O2- 4 e 0.433 0.524 0.189 0.67 1. 0
O8 O2- 4 e 0.583 0.227 0.195 0.48 1. 0
O9 O2- 4 e 0.679 0.024 0.055 0.39 1. 0
O10 O2- 4 e 0.756 0.355 0.047 0.33 1. 0
O11 O2- 4 e 0.748 0.727 0.134 0.59 1. 0
O12 O2- 4 e 0.922 0.245 0.197 0.3 1. 0
#End of TTdata_260-ICSD
