
#(C) 2019 by FIZ Karlsruhe - Leibniz Institute for Information Infrastructure.  All rights reserved.
data_334-ICSD
_database_code_ICSD 334
_audit_creation_date 1980-01-01
_audit_update_record 2012-08-01
_chemical_name_systematic 'Gallium titanium oxide (3.5/21.5/48)'
_chemical_formula_structural 'Ga3.46 Ti21.54 O48'
_chemical_formula_sum 'Ga3.46 O48 Ti21.54'
_exptl_crystal_density_diffrn 4.4
_publ_section_title 'The structure of Ga4 Ti21 O48'
loop_
_citation_id
_citation_journal_full
_citation_year
_citation_journal_volume
_citation_page_first
_citation_page_last
_citation_journal_id_ASTM
primary

;
Acta Crystallographica, Section B: Structural Crystallography and Crystal
Chemistry
; 1976 32 1756 1761 ACBCAR
loop_
_publ_author_name
'Lloyd, D.J.'
'Grey, I.E.'
'Bursill, L.'
_cell_length_a 51.80(2)
_cell_length_b 2.975(1)
_cell_length_c 10.302(4)
_cell_angle_alpha 90.
_cell_angle_beta 103.80(2)
_cell_angle_gamma 90.
_cell_volume 1541.76
_cell_formula_units_Z 2
_symmetry_space_group_name_H-M 'C 1 2/m 1'
_symmetry_Int_Tables_number 12
_refine_ls_R_factor_all 0.085
loop_
_symmetry_equiv_pos_site_id
_symmetry_equiv_pos_as_xyz
1 '-x, y, -z'
2 '-x, -y, -z'
3 'x, -y, z'
4 'x, y, z'
5 '-x+1/2, y+1/2, -z'
6 '-x+1/2, -y+1/2, -z'
7 'x+1/2, -y+1/2, z'
8 'x+1/2, y+1/2, z'
loop_
_atom_type_symbol
_atom_type_oxidation_number
Ti4+ 4
Ga3+ 3
Ti3+ 3
Ga3+ 3
Ti4+ 4
O2- -2
loop_
_atom_site_label
_atom_site_type_symbol
_atom_site_symmetry_multiplicity
_atom_site_Wyckoff_symbol
_atom_site_fract_x
_atom_site_fract_y
_atom_site_fract_z
_atom_site_B_iso_or_equiv
_atom_site_occupancy
_atom_site_attached_hydrogens
Ti1 Ti4+ 2 a 0 0 0 0.13 1. 0
Ti2 Ti4+ 4 i 0.04084(7) 0 0.45049(35) 0.17 1. 0
Ti3 Ti4+ 4 i 0.08132(7) 0 0.89893(33) 0.04 1. 0
Ti4 Ti4+ 4 i 0.12180(7) 0 0.34864(34) 0.06 1. 0
Ti5 Ti4+ 4 i 0.16329(7) 0 0.80063(36) 0.21 1. 0
Ti6 Ti4+ 4 i 0.20280(7) 0 0.25046(35) 0.11 1. 0
Ti7 Ti4+ 4 i 0.35771(7) 0 0.92577(34) 0.08 1. 0
Ti8 Ti4+ 4 i 0.39793(7) 0 0.37487(34) 0.18 1. 0
Ti9 Ti4+ 4 i 0.43914(7) 0 0.82610(34) 0.11 1. 0
Ti10 Ti4+ 4 i 0.47979(7) 0 0.27529(33) 0.15 1. 0
Ga1 Ga3+ 4 i 0.23753(5) 0 0.70908(22) 0.25 1. 0
Ga2 Ga3+ 4 i 0.27733(5) 0 0.01578(24) 0.25 0.64 0
Ti11 Ti3+ 4 i 0.27733(24) 0 0.01578(24) 0.25 0.36 0
Ga3 Ga3+ 4 i 0.31766(7) 0 0.47722(33) 0.13 0.09 0
Ti12 Ti4+ 4 i 0.31766(7) 0 0.47722(33) 0.13 0.91 0
O1 O2- 4 i 0.06916(23) 0 0.0675(12) -.09 1. 0
O2 O2- 4 i 0.05322(24) 0 0.2821(12) 0.29 1. 0
O3 O2- 4 i 0.11029(24) 0 0.5169(12) 0.12 1. 0
O4 O2- 4 i 0.02836(22) 0 0.6185(12) -.12 1. 0
O5 O2- 4 i 0.09399(22) 0 0.7319(11) -.16 1. 0
O6 O2- 4 i 0.01259(24) 0 0.8317(12) 0.17 1. 0
O7 O2- 4 i 0.21546(24) 0 0.0875(12) 0.32 1. 0
O8 O2- 4 i 0.13423(24) 0 0.1810(12) 0.18 1. 0
O9 O2- 4 i 0.19191(24) 0 0.4206(12) 0.14 1. 0
O10 O2- 4 i 0.17516(25) 0 0.6313(12) 0.24 1. 0
O11 O2- 4 i 0.23805(24) 0 0.8919(12) -.13 1. 0
O12 O2- 4 i 0.15097(23) 0 0.9682(12) 0.19 1. 0
O13 O2- 4 i 0.31240(24) 0 0.1365(12) 0.16 1. 0
O14 O2- 4 i 0.36052(24) 0 0.2677(12) 0.13 1. 0
O15 O2- 4 i 0.28013(24) 0 0.366(11) 0.22 1. 0
O16 O2- 4 i 0.35400(25) 0 0.5840(12) 0.06 1. 0
O17 O2- 4 i 0.27166(24) 0 0.6867(12) -.1 1. 0
O18 O2- 4 i 0.32071(23) 0 0.8146(12) -.04 1. 0
O19 O2- 4 i 0.39464(23) 0 0.0348(12) -.02 1. 0
O20 O2- 4 i 0.44229(23) 0 0.1699(12) -.12 1. 0
O21 O2- 4 i 0.43516(23) 0 0.4825(12) 0.01 1. 0
O22 O2- 4 i 0.48318(24) 0 0.6171(12) 0.08 1. 0
O23 O2- 4 i 0.40183(24) 0 0.7188(12) -.04 1. 0
O24 O2- 4 i 0.47591(24) 0 0.9319(12) -.19 1. 0
#End of TTdata_334-ICSD
