
#(C) 2019 by FIZ Karlsruhe - Leibniz Institute for Information Infrastructure.  All rights reserved.
data_98-ICSD
_database_code_ICSD 98
_audit_creation_date 1980-01-01
_audit_update_record 2013-02-01
_chemical_name_systematic 'Iron uranium sulfide'
_chemical_formula_structural 'Fe U S3'
_chemical_formula_sum 'Fe1 S3 U1'
_chemical_name_structure_type ScUS3
_exptl_crystal_density_diffrn 6.74
_publ_section_title 'Structure cristalline de Fe U S3'
loop_
_citation_id
_citation_journal_full
_citation_year
_citation_journal_volume
_citation_page_first
_citation_page_last
_citation_journal_id_ASTM
primary

;
Acta Crystallographica, Section B: Structural Crystallography and Crystal
Chemistry
; 1976 32 1593 1595 ACBCAR
loop_
_publ_author_name
'Noel, H.'
'Padiou, J.'
_cell_length_a 3.795(3)
_cell_length_b 11.626(5)
_cell_length_c 8.717(4)
_cell_angle_alpha 90.
_cell_angle_beta 90.
_cell_angle_gamma 90.
_cell_volume 384.6
_cell_formula_units_Z 4
_symmetry_space_group_name_H-M 'C m c m'
_symmetry_Int_Tables_number 63
_refine_ls_R_factor_all 0.049
loop_
_symmetry_equiv_pos_site_id
_symmetry_equiv_pos_as_xyz
1 '-x, y, -z+1/2'
2 '-x, -y, z+1/2'
3 '-x, y, z'
4 '-x, -y, -z'
5 'x, -y, z+1/2'
6 'x, y, -z+1/2'
7 'x, -y, -z'
8 'x, y, z'
9 '-x+1/2, y+1/2, -z+1/2'
10 '-x+1/2, -y+1/2, z+1/2'
11 '-x+1/2, y+1/2, z'
12 '-x+1/2, -y+1/2, -z'
13 'x+1/2, -y+1/2, z+1/2'
14 'x+1/2, y+1/2, -z+1/2'
15 'x+1/2, -y+1/2, -z'
16 'x+1/2, y+1/2, z'
loop_
_atom_type_symbol
_atom_type_oxidation_number
Fe2+ 2
U4+ 4
S2- -2
loop_
_atom_site_label
_atom_site_type_symbol
_atom_site_symmetry_multiplicity
_atom_site_Wyckoff_symbol
_atom_site_fract_x
_atom_site_fract_y
_atom_site_fract_z
_atom_site_B_iso_or_equiv
_atom_site_occupancy
_atom_site_attached_hydrogens
Fe1 Fe2+ 4 a 0 0 0 . 1. 0
U1 U4+ 4 c 0 0.2445(1) 0.25 . 1. 0
S1 S2- 4 c 0 0.9173(4) 0.25 . 1. 0
S2 S2- 8 f 0 0.6417(3) 0.0571(4) . 1. 0
loop_
_atom_site_aniso_label
_atom_site_aniso_type_symbol
_atom_site_aniso_beta_11
_atom_site_aniso_beta_22
_atom_site_aniso_beta_33
_atom_site_aniso_beta_12
_atom_site_aniso_beta_13
_atom_site_aniso_beta_23
Fe1 Fe2+ 0.0341(25) 0.0023(2) 0.0033(3) 0 0 0
U1 U4+ 0.0221(5) 0.00101(4) 0.00215(8) 0 0 0
S1 S2- 0.0343(43) 0.0011(3) 0.0022(5) 0 0 0
S2 S2- 0.0220(23) 0.0013(2) 0.0025(4) 0 0 -.0002(1)
#End of TTdata_98-ICSD
