
#(C) 2019 by FIZ Karlsruhe - Leibniz Institute for Information Infrastructure.  All rights reserved.
data_129-ICSD
_database_code_ICSD 129
_audit_creation_date 1980-01-01
_audit_update_record 2011-02-01
_chemical_name_systematic 'Dierbium tristrontium tetrakis(borate)'
_chemical_formula_structural 'Er2 Sr3 (B O3)4'
_chemical_formula_sum 'B4 Er2 O12 Sr3'
_chemical_name_structure_type Er2Sr3(BO3)4
_exptl_crystal_density_diffrn 5.66
_publ_section_title

;
Kristallicheskaya struktura dboinogo ortoborata erbyia istrontsiya Er2 Sr3 (B
O3)4
;
loop_
_citation_id
_citation_journal_full
_citation_year
_citation_journal_volume
_citation_page_first
_citation_page_last
_citation_journal_id_ASTM
primary 'Zhurnal Strukturnoi Khimii' 1976 17 188 191 ZSTKAI
loop_
_publ_author_name
'Abdullaev, G.K.'
'Mamedov, C.'
_cell_length_a 8.57(3)
_cell_length_b 15.80(5)
_cell_length_c 7.22(2)
_cell_angle_alpha 90.
_cell_angle_beta 90.
_cell_angle_gamma 90.
_cell_volume 977.63
_cell_formula_units_Z 4
_symmetry_space_group_name_H-M 'P c 21 n'
_symmetry_Int_Tables_number 33
_refine_ls_R_factor_all 0.14
loop_
_symmetry_equiv_pos_site_id
_symmetry_equiv_pos_as_xyz
1 '-x+1/2, y, z+1/2'
2 'x+1/2, y+1/2, -z+1/2'
3 '-x, y+1/2, -z'
4 'x, y, z'
loop_
_atom_type_symbol
_atom_type_oxidation_number
Er3+ 3
Sr2+ 2
O2- -2
B3+ 3
loop_
_atom_site_label
_atom_site_type_symbol
_atom_site_symmetry_multiplicity
_atom_site_Wyckoff_symbol
_atom_site_fract_x
_atom_site_fract_y
_atom_site_fract_z
_atom_site_B_iso_or_equiv
_atom_site_occupancy
_atom_site_attached_hydrogens
Er1 Er3+ 4 a 0.0352(3) 0.5541(2) 0.1862(3) 0.6 1. 0
Er2 Er3+ 4 a 0.1671(4) 0.3942(1) 0.4663(6) 1.2 1. 0
Sr1 Sr2+ 4 a 0.1542(3) 0.1771(4) 0.1961(7) 2. 1. 0
Sr2 Sr2+ 4 a 0.1793(5) 0.7302(3) 0.4822(6) 0.6 1. 0
Sr3 Sr2+ 4 a 0.1621(2) 0.9321(3) 0.1913(4) 0.5 1. 0
O1 O2- 4 a 0.049(2) 0.418(2) 0.079(3) 1.6 1. 0
O2 O2- 4 a 0.203(4) 0.857(3) 0.915(6) 1.6 1. 0
O3 O2- 4 a 0.003(5) 0.299(2) 0.257(4) 1.1 1. 0
O4 O2- 4 a 0.063(4) 0.721(4) 0.115(8) 0.8 1. 0
O5 O2- 4 a 0.198(5) 0.266(3) 0.882(3) 2.5 1. 0
O6 O2- 4 a 0.007(4) 0.333(3) 0.694(8) 0.6 1. 0
O7 O2- 4 a 0.013(3) 0.052(4) 0.154(6) 1.8 1. 0
O8 O2- 4 a 0.225(6) 0.498(2) 0.735(4) 0.5 1. 0
O9 O2- 4 a 0.183(1) 0.649(3) 0.752(2) 1.2 1. 0
O10 O2- 4 a 0.053(7) 0.988(1) 0.529(3) 0.8 1. 0
O11 O2- 4 a 0.089(2) 0.132(3) 0.598(2) 1.7 1. 0
O12 O2- 4 a 0.235(1) 0.057(4) 0.902(3) 0.9 1. 0
B1 B3+ 4 a 0.050(3) 0.857(5) 0.864(6) 0.5 1. 0
B2 B3+ 4 a 0.049(6) 0.278(3) 0.838(2) 0.4 1. 0
B3 B3+ 4 a 0.141(4) 0.567(5) 0.798(6) 0.8 1. 0
B4 B3+ 4 a 0.145(3) 0.058(4) 0.528(5) 1. 1. 0
#End of TTdata_129-ICSD
