
#(C) 2019 by FIZ Karlsruhe - Leibniz Institute for Information Infrastructure.  All rights reserved.
data_308-ICSD
_database_code_ICSD 308
_audit_creation_date 1980-01-01
_audit_update_record 2012-02-01
_chemical_name_systematic 'Tin fluoride'
_chemical_formula_structural 'Sn F2'
_chemical_formula_sum 'F2 Sn1'
_chemical_name_structure_type SnF2(C2/c)
_exptl_crystal_density_diffrn 4.88
_publ_section_title

;
Crystallographic studies of tin(II) compounds.I. Crystal structure of tin(II)
fluoride, Sn F2
;
loop_
_citation_id
_citation_journal_full
_citation_year
_citation_journal_volume
_citation_page_first
_citation_page_last
_citation_journal_id_ASTM
primary 'Inorganic Chemistry' 1976 15 762 765 INOCAJ
loop_
_publ_author_name
'McDonald, R.'
'Hau, H.'
'Eriks, K.'
_cell_length_a 13.353(1)
_cell_length_b 4.9090(4)
_cell_length_c 13.787(1)
_cell_angle_alpha 90.
_cell_angle_beta 109.11(1)
_cell_angle_gamma 90.
_cell_volume 853.93
_cell_formula_units_Z 16
_symmetry_space_group_name_H-M 'C 1 2/c 1'
_symmetry_Int_Tables_number 15
_refine_ls_R_factor_all 0.057
loop_
_symmetry_equiv_pos_site_id
_symmetry_equiv_pos_as_xyz
1 'x, -y, z+1/2'
2 '-x, -y, -z'
3 '-x, y, -z+1/2'
4 'x, y, z'
5 'x+1/2, -y+1/2, z+1/2'
6 '-x+1/2, -y+1/2, -z'
7 '-x+1/2, y+1/2, -z+1/2'
8 'x+1/2, y+1/2, z'
loop_
_atom_type_symbol
_atom_type_oxidation_number
Sn2+ 2
F1- -1
loop_
_atom_site_label
_atom_site_type_symbol
_atom_site_symmetry_multiplicity
_atom_site_Wyckoff_symbol
_atom_site_fract_x
_atom_site_fract_y
_atom_site_fract_z
_atom_site_B_iso_or_equiv
_atom_site_occupancy
_atom_site_attached_hydrogens
Sn1 Sn2+ 8 f 0.3724(1) 0.4900(4) 0.0574(1) . 1. 0
Sn2 Sn2+ 8 f 0.1183(1) 0.4825(3) 0.1867(1) . 1. 0
F1 F1- 8 f 0.2606(10) 0.2376(30) 0.3077(12) . 1. 0
F2 F1- 8 f 0.3852(11) 0.2195(31) 0.1787(11) . 1. 0
F3 F1- 8 f 0.1749(11) 0.3391(30) 0.0406(10) . 1. 0
F4 F1- 8 f 0.4717(11) 0.3259(32) 0.4157(12) . 1. 0
loop_
_atom_site_aniso_label
_atom_site_aniso_type_symbol
_atom_site_aniso_U_11
_atom_site_aniso_U_22
_atom_site_aniso_U_33
_atom_site_aniso_U_12
_atom_site_aniso_U_13
_atom_site_aniso_U_23
Sn1 Sn2+ 0.0231(7) 0.0205 0.0196(7) 0.0018(5) 0.0073(4) 0.0001(5)
Sn2 Sn2+ 0.0172(7) 0.0185 0.0220(7) -.0022(7) 0.0053(4) -.0012(7)
F1 F1- 0.0171(53) 0.0328 0.0492(81) 0.0034(52) 0.0059(53) 0.0059(64)
F2 F1- 0.037(6) 0.0375 0.0313(66) 0.0023(66) 0.0139(61) 0.0150(57)
F3 F1- 0.0360(68) 0.0327 0.0297(62) -.0023(58) 0.0143(56) -.0099(56)
F4 F1- 0.0270(66) 0.0349 0.0533(88) -.00146(58) 0.0059(63) -.0162(69)
#End of TTdata_308-ICSD
