
#(C) 2019 by FIZ Karlsruhe - Leibniz Institute for Information Infrastructure.  All rights reserved.
data_309-ICSD
_database_code_ICSD 309
_audit_creation_date 1980-01-01
_audit_update_record 2009-08-01
_chemical_name_systematic
'Ditellurium octaselenium bis(hexafluoroarsenate(V)) - sulfur dioxide (1/1)'
_chemical_formula_structural '(Te2 Se8 (As F6)2) (S O2)'
_chemical_formula_sum 'As2 F12 O2 S1 Se8 Te2'
_exptl_crystal_density_diffrn 3.91
_publ_section_title

;
Preparation and crystal structures of ditellurium octaselenium
bis(hexafluoroarsenate)-sulfur dioxide, Te2 Se8 (As F6)2 S O2 and
tetratellurium hexaselenium- bis(hexafluoroarsenate), Te3.7 Se6.3 (As F6)2
;
loop_
_citation_id
_citation_journal_full
_citation_year
_citation_journal_volume
_citation_page_first
_citation_page_last
_citation_journal_id_ASTM
primary 'Inorganic Chemistry' 1976 15 765 770 INOCAJ
loop_
_publ_author_name
'Boldrini, P.'
'Brown, I.'
'Gillespie, R.J.'
'Ireland, P.R.'
'Luk, W.C.'
'Slim, D.R.'
'Vekris, J.E.'
_cell_length_a 7.337(2)
_cell_length_b 8.545(3)
_cell_length_c 36.030(2)
_cell_angle_alpha 90.
_cell_angle_beta 91.52(5)
_cell_angle_gamma 90.
_cell_volume 2258.09
_cell_formula_units_Z 4
_symmetry_space_group_name_H-M 'P 1 21/c 1'
_symmetry_Int_Tables_number 14
_refine_ls_R_factor_all 0.098
loop_
_symmetry_equiv_pos_site_id
_symmetry_equiv_pos_as_xyz
1 'x, -y+1/2, z+1/2'
2 '-x, -y, -z'
3 '-x, y+1/2, -z+1/2'
4 'x, y, z'
loop_
_atom_type_symbol
_atom_type_oxidation_number
Te1+ 1
Se0+ 0
As5+ 5
F1- -1
S4+ 4
O2- -2
loop_
_atom_site_label
_atom_site_type_symbol
_atom_site_symmetry_multiplicity
_atom_site_Wyckoff_symbol
_atom_site_fract_x
_atom_site_fract_y
_atom_site_fract_z
_atom_site_B_iso_or_equiv
_atom_site_occupancy
_atom_site_attached_hydrogens
Te1 Te1+ 4 e 0.3074(5) 0.1718(6) 0.4278(1) . 1. 0
Te2 Te1+ 4 e 0.1502(5) 0.4669(5) 0.3133(1) . 1. 0
Se1 Se0+ 4 e -.0149(8) 0.2702(7) 0.4029(1) . 1. 0
Se2 Se0+ 4 e 0.4249(8) 0.2830(7) 0.3299(1) . 1. 0
Se3 Se0+ 4 e 0.5016(8) 0.3757(7) 0.3904(2) . 1. 0
Se4 Se0+ 4 e 0.0538(7) 0.5218(7) 0.3805(1) . 1. 0
Se5 Se0+ 4 e 0.3416(9) -.0622(7) 0.3833(2) . 1. 0
Se6 Se0+ 4 e -.0876(8) 0.2501(7) 0.2969(2) . 1. 0
Se7 Se0+ 4 e 0.0596(8) -.0858(7) 0.3533(2) . 1. 0
Se8 Se0+ 4 e 0.1021(8) 0.0324(7) 0.2937(1) . 1. 0
As1 As5+ 4 e 0.3946(8) 0.2432(7) 0.2077(1) . 1. 0
As2 As5+ 4 e 0.2207(9) 0.3724(8) 0.0463(1) . 1. 0
F1 F1- 4 e 0.4344(74) 0.0656(79) 0.2280(14) 0.119 1. 0
F2 F1- 4 e 0.3483(65) 0.4153(60) 0.1863(12) 0.103 1. 0
F3 F1- 4 e 0.3131(59) 0.3074(54) 0.2485(11) 0.089 1. 0
F4 F1- 4 e 0.4849(54) 0.1797(48) 0.1682(9) 0.072 1. 0
F5 F1- 4 e 0.1821(72) 0.1721(64) 0.1962(13) 0.116 1. 0
F6 F1- 4 e 0.5981(77) 0.3217(70) 0.2174(14) 0.124 1. 0
F7 F1- 4 e 0.0172(78) 0.4508(79) 0.0548(15) 0.148 1. 0
F8 F1- 4 e 0.4299(93) 0.3019(74) 0.0378(15) 0.138 1. 0
F9 F1- 4 e 0.1365(89) 0.2722(80) 0.0116(16) 0.146 1. 0
F10 F1- 4 e 0.3038(91) 0.4956(81) 0.0775(16) 0.146 1. 0
F11 F1- 4 e 0.207(15) 0.238(13) 0.0762(25) 0.297 1. 0
F12 F1- 4 e 0.248(14) 0.525(13) 0.0146(24) 0.266 1. 0
S1 S4+ 4 e 0.2607(35) 0.6499(31) 0.4923(7) 0.1 1. 0
O1 O2- 4 e 0.3797(89) 0.6258(78) 0.5259(17) 0.117 1. 0
O2 O2- 4 e 0.2396(78) 0.5213(70) 0.4673(14) 0.099 1. 0
loop_
_atom_site_aniso_label
_atom_site_aniso_type_symbol
_atom_site_aniso_U_11
_atom_site_aniso_U_22
_atom_site_aniso_U_33
_atom_site_aniso_U_12
_atom_site_aniso_U_13
_atom_site_aniso_U_23
Te1 Te1+ 0.049(3) 0.046(3) 0.033(3) -.004(2) 0.001(2) 0.002(2)
Te2 Te1+ 0.044(3) 0.040(2) 0.041(2) 0.002(2) 0.002(2) 0.005(2)
Se1 Se0+ 0.034(3) 0.034(3) 0.034(3) 0.006(3) 0.001(3) 0.003(3)
Se2 Se0+ 0.040(4) 0.043(4) 0.039(3) 0.006(3) -.001(3) 0.005(3)
Se3 Se0+ 0.033(3) 0.051(4) 0.028(3) -.007(3) -.003(2) 0.003(3)
Se4 Se0+ 0.068(5) 0.030(3) 0.045(3) 0.010(3) 0.002(3) -.003(3)
Se5 Se0+ 0.050(4) 0.039(4) 0.047(4) 0.006(3) -.002(3) 0.001(3)
Se6 Se0+ 0.039(4) 0.062(4) 0.048(4) 0.000(3) -.004(3) 0.005(3)
Se7 Se0+ 0.049(4) 0.036(4) 0.043(3) -.010(3) -.002(3) -.002(3)
Se8 Se0+ 0.043(4) 0.047(4) 0.036(3) -.007(3) -.002(3) -.009(3)
As1 As5+ 0.039(3) 0.038(4) 0.036(3) 0.000(3) 0.002(3) 0.005(3)
As2 As5+ 0.044(4) 0.065(5) 0.050(4) 0.000(4) 0.004(3) -.017(3)
#End of TTdata_309-ICSD
