
#(C) 2019 by FIZ Karlsruhe - Leibniz Institute for Information Infrastructure.  All rights reserved.
data_364-ICSD
_database_code_ICSD 364
_audit_creation_date 1980-01-01
_audit_update_record 1999-01-19
_chemical_name_systematic 'Decasilver tetrathiosilicate heptathiodisilicate'
_chemical_formula_structural 'Ag10 (Si S4) (Si2 S7)'
_chemical_formula_sum 'Ag10 S11 Si3'
_exptl_crystal_density_diffrn 5.16
_publ_section_title 'Darstellung, Struktur und Eigenschaften von Ag10 Si3 S11'
loop_
_citation_id
_citation_journal_full
_citation_year
_citation_journal_volume
_citation_page_first
_citation_page_last
_citation_journal_id_ASTM
primary 'Zeitschrift fuer Anorganische und Allgemeine Chemie (1950) (DE)' 1976
420 31 39 ZAACAB
loop_
_publ_author_name
'Mandt, J.'
'Krebs, B.'
_cell_length_a 12.414(6)
_cell_length_b 13.476(6)
_cell_length_c 6.459(3)
_cell_angle_alpha 78.92(4)
_cell_angle_beta 77.61(4)
_cell_angle_gamma 68.71(4)
_cell_volume 975.56
_cell_formula_units_Z 2
_symmetry_space_group_name_H-M 'P -1'
_symmetry_Int_Tables_number 2
_refine_ls_R_factor_all 0.065
loop_
_symmetry_equiv_pos_site_id
_symmetry_equiv_pos_as_xyz
1 '-x, -y, -z'
2 'x, y, z'
loop_
_atom_type_symbol
_atom_type_oxidation_number
Ag1+ 1
Si4+ 4
S2- -2
loop_
_atom_site_label
_atom_site_type_symbol
_atom_site_symmetry_multiplicity
_atom_site_Wyckoff_symbol
_atom_site_fract_x
_atom_site_fract_y
_atom_site_fract_z
_atom_site_B_iso_or_equiv
_atom_site_occupancy
_atom_site_attached_hydrogens
Ag1 Ag1+ 2 i 0.2674(1) 0.3119(1) -.4830(2) . 1. 0
Ag2 Ag1+ 2 i 0.1726(1) -.1214(1) 0.2271(2) . 1. 0
Ag3 Ag1+ 2 i 0.3626(1) -.3667(1) -.2055(2) . 1. 0
Ag4 Ag1+ 2 i 0.3122(1) -.4710(1) 0.4441(2) . 1. 0
Ag5 Ag1+ 2 i 0.4044(1) -.1631(1) -.2542(3) . 1. 0
Ag6 Ag1+ 2 i 0.0351(1) 0.3430(1) 0.3520(3) . 1. 0
Ag7 Ag1+ 2 i 0.2772(1) 0.1785(1) 0.1391(3) . 1. 0
Ag8 Ag1+ 2 i -.0271(2) 0.1195(2) 0.2009(4) . 1. 0
Ag9 Ag1+ 2 i 0.0274(2) -.3113(1) 0.1504(4) . 1. 0
Ag10 Ag1+ 2 i 0.3918(6) -.0367(3) 0.2938(7) . 0.5 0
Ag11 Ag1+ 2 i 0.4682(5) -.0370(4) 0.3264(8) . 0.5 0
Si1 Si4+ 2 i 0.1764(4) 0.0633(3) -.3045(7) . 1. 0
Si2 Si4+ 2 i 0.2105(3) 0.4625(3) -.0099(6) . 1. 0
Si3 Si4+ 2 i 0.5123(3) 0.3005(3) -.2001(6) . 1. 0
S1 S2- 2 i 0.0159(3) 0.1746(3) -.3973(6) . 1. 0
S2 S2- 2 i 0.3233(3) 0.1087(3) -.4758(6) . 1. 0
S3 S2- 2 i 0.2082(3) -.0932(3) -.3784(6) . 1. 0
S4 S2- 2 i 0.1721(4) 0.0589(3) 0.0291(6) . 1. 0
S5 S2- 2 i 0.1699(4) 0.3398(3) -.0957(6) . 1. 0
S6 S2- 2 i 0.1611(3) 0.6125(3) -.2103(6) . 1. 0
S7 S2- 2 i 0.1364(3) 0.4827(3) 0.3120(8) . 1. 0
S8 S2- 2 i 0.4973(3) 0.1525(3) -.0383(6) . 1. 0
S9 S2- 2 i 0.6775(3) 0.3073(3) -.1820(6) . 1. 0
S10 S2- 2 i 0.4736(3) 0.3346(3) -.5166(6) . 1. 0
S11 S2- 2 i 0.3969(3) 0.4264(3) -.0144(6) . 1. 0
loop_
_atom_site_aniso_label
_atom_site_aniso_type_symbol
_atom_site_aniso_U_11
_atom_site_aniso_U_22
_atom_site_aniso_U_33
_atom_site_aniso_U_12
_atom_site_aniso_U_13
_atom_site_aniso_U_23
Ag1 Ag1+ 0.0375(9) 0.0224(6) 0.0315(8) -.0104(6) -.0043(7) -.0023(6)
Ag2 Ag1+ 0.0456(10) 0.0189(7) 0.0492(10) -.0018(7) 0.0050(7) 0.0041(7)
Ag3 Ag1+ 0.0476(10) 0.0539(10) 0.0297(9) -.0384(9) -.0014(7) -.0013(8)
Ag4 Ag1+ 0.0549(9) 0.0244(7) 0.0249(7) -.0190(7) -.0043(7) -.0003(6)
Ag5 Ag1+ 0.0532(10) 0.0342(8) 0.0516(11) -.0142(7) -.0368(9) 0.0084(8)
Ag6 Ag1+ 0.0398(9) 0.0501(10) 0.0815(14) -.0302(8) -.0289(9) 0.0352(10)
Ag7 Ag1+ 0.0391(9) 0.0434(9) 0.049(1) -.0157(7) -.0177(8) 0.0093(8)
Ag8 Ag1+ 0.0463(11) 0.0990(18) 0.0792(16) -.0346(13) 0.0273(11) -.0181(14)
Ag9 Ag1+ 0.0787(15) 0.0487(12) 0.1049(19) 0.0306(11) -.0458(15) -.0564(13)
Ag10 Ag1+ 0.1333(51) 0.0222(18) 0.0278(22) 0.0144(30) 0.0233(30) -.0118(15)
Ag11 Ag1+ 0.0875(36) 0.0254(17) 0.0367(24) 0.0083(24) 0.0100(25) -.0100(15)
Si1 Si4+ 0.0107(19) 0.0055(18) 0.0132(20) -.0024(15) -.0006(15) -.0022(16)
Si2 Si4+ 0.0097(19) 0.0050(18) 0.008(2) -.0005(14) -.0020(15) -.0007(16)
Si3 Si4+ 0.0108(19) 0.0078(18) 0.0099(20) -.0037(15) -.0030(15) -.0012(16)
S1 S2- 0.0094(17) 0.0117(16) 0.0191(20) -.0001(14) -.0043(15) -.0009(15)
S2 S2- 0.0102(17) 0.0155(16) 0.0142(20) -.0045(14) 0.0045(15) -.0062(15)
S3 S2- 0.0137(19) 0.0059(16) 0.0196(20) -.0001(15) -.0036(15) 0.0055(15)
S4 S2- 0.0287(22) 0.0160(18) 0.0089(19) -.0103(19) -.0012(16) -.0039(16)
S5 S2- 0.0237(21) 0.0159(18) 0.0136(20) -.0115(17) -.0029(16) -.0039(16)
S6 S2- 0.0111(18) 0.0108(17) 0.0143(19) -.0010(15) -.0038(15) 0.0021(15)
S7 S2- 0.0130(18) 0.0122(17) 0.0075(18) -.0024(15) 0.0014(15) 0.0012(15)
S8 S2- 0.0191(19) 0.0097(17) 0.0103(19) -.0057(15) -.0021(15) 0.0011(14)
S9 S2- 0.0081(17) 0.0080(16) 0.0155(19) -.0011(14) -.0032(15) -.0020(15)
S10 S2- 0.0161(19) 0.0177(18) 0.0070(18) -.0037(15) -.0018(14) -.0031(15)
S11 S2- 0.0075(17) 0.0089(16) 0.0163(20) 0.0021(14) -.0033(14) -.0078(15)
#End of TTdata_364-ICSD
