
#(C) 2019 by FIZ Karlsruhe - Leibniz Institute for Information Infrastructure.  All rights reserved.
data_323-ICSD
_database_code_ICSD 323
_audit_creation_date 1986-08-07
_audit_update_record 2012-02-01
_chemical_name_systematic 'Barium tecto-alumosilicate hydrate *'
_chemical_formula_structural 'Ba2.02 (Al4.03 Si5.97 O20) (H2 O)7.81'
_chemical_formula_sum 'H15.62 Al4.03 Ba2.02 O27.81 Si5.97'
_chemical_name_structure_type 'Edingtonite O'
_chemical_name_mineral 'Edingtonite 1O'
_exptl_crystal_density_diffrn 2.8
_publ_section_title 'Crystal structure refinement of edingtonite'
loop_
_citation_id
_citation_journal_full
_citation_year
_citation_journal_volume
_citation_page_first
_citation_page_last
_citation_journal_id_ASTM
primary

;
Acta Crystallographica, Section B: Structural Crystallography and Crystal
Chemistry
; 1976 32 1623 1627 ACBCAR
loop_
_publ_author_name
'Galli, E.'
_cell_length_a 9.55(1)
_cell_length_b 9.665(10)
_cell_length_c 6.523(5)
_cell_angle_alpha 90.
_cell_angle_beta 90.
_cell_angle_gamma 90.
_cell_volume 602.08
_cell_formula_units_Z 1
_symmetry_space_group_name_H-M 'P 21 21 2'
_symmetry_Int_Tables_number 18
_refine_ls_R_factor_all 0.043
loop_
_symmetry_equiv_pos_site_id
_symmetry_equiv_pos_as_xyz
1 '-x+1/2, y+1/2, -z'
2 'x+1/2, -y+1/2, -z'
3 '-x, -y, z'
4 'x, y, z'
loop_
_atom_type_symbol
_atom_type_oxidation_number
Si4+ 4
Al3+ 3
O2- -2
Ba2+ 2
O2- -2
H1+ 1
loop_
_atom_site_label
_atom_site_type_symbol
_atom_site_symmetry_multiplicity
_atom_site_Wyckoff_symbol
_atom_site_fract_x
_atom_site_fract_y
_atom_site_fract_z
_atom_site_B_iso_or_equiv
_atom_site_occupancy
_atom_site_attached_hydrogens
Si1 Si4+ 2 a 0 0 0.014 . 1. 0
Si2 Si4+ 4 c -.1759(1) 0.0940(1) 0.3884(2) . 1. 0
Al1 Al3+ 4 c 0.0922(1) 0.1714(1) 0.6263(2) . 1. 0
O1 O2- 4 c 0.1744(3) 0.3311(3) 0.6315(5) . 1. 0
O2 O2- 4 c -.0530(3) 0.1969(3) 0.4673(4) . 1. 0
O3 O2- 4 c 0.1990(3) 0.0369(3) 0.5369(4) . 1. 0
O4 O2- 4 c 0.0362(3) 0.1329(3) 0.8796(5) . 1. 0
O5 O2- 4 c -.1341(3) 0.0366(3) 0.1574(4) . 1. 0
Ba1 Ba2+ 2 b 0.5 0 0.6299(1) . 1. 0
O6 O2- 4 c 0.1748(5) 0.3242(5) 0.1421(8) . 0.976 0
O7 O2- 4 c 0.3811(5) 0.1201(5) -.0144(7) . 0.976 0
loop_
_atom_site_aniso_label
_atom_site_aniso_type_symbol
_atom_site_aniso_beta_11
_atom_site_aniso_beta_22
_atom_site_aniso_beta_33
_atom_site_aniso_beta_12
_atom_site_aniso_beta_13
_atom_site_aniso_beta_23
Si1 Si4+ 0.0012(1) 0.0012(1) 0.0007(3) 0.0000(2) 0 0
Si2 Si4+ 0.0008(1) 0.0009(1) 0.0022(2) 0.0001(1) 0.0001(1) 0.0000(1)
Al1 Al3+ 0.0011(1) 0.0007(1) 0.0015(1) -.0001(1) 0.0000(2) -.0001(2)
O1 O2- 0.0012(2) 0.0014(2) 0.0059(6) -.0007(2) -.0004(5) -.0001(5)
O2 O2- 0.0019(3) 0.0028(3) 0.0020(6) -.0008(2) -.0006(4) 0.0006(4)
O3 O2- 0.0024(3) 0.0015(3) 0.0044(6) 0.0009(2) -.0007(4) -.0012(3)
O4 O2- 0.0035(3) 0.0018(2) 0.0023(5) -.0002(3) 0.0005(4) -.0001(4)
O5 O2- 0.0020(3) 0.0035(3) 0.0016(6) 0.0000(3) 0.0005(3) -.0005(3)
Ba1 Ba2+ 0.0022(1) 0.0025(1) 0.0108(1) -.0005(1) 0 0
O6 O2- 0.0094(6) 0.0094(6) 0.0207(13) -.0019(5) 0.0047(9) -.0064(9)
O7 O2- 0.0109(7) 0.0110(7) 0.0219(7) 0.0021(6) 0.0015(9) -.0027(9)
#End of TTdata_323-ICSD
