
#(C) 2019 by FIZ Karlsruhe - Leibniz Institute for Information Infrastructure.  All rights reserved.
data_360-ICSD
_database_code_ICSD 360
_audit_creation_date 1980-01-01
_chemical_name_systematic 'Tetraarsenic tetrasulfide'
_chemical_formula_structural 'As4 S4'
_chemical_formula_sum 'As4 S4'
_exptl_crystal_density_diffrn 3.56
_publ_section_title
'Darstellung und Kristallstruktur einer neuen isomeren Form von As4 S4'
loop_
_citation_id
_citation_journal_full
_citation_year
_citation_journal_volume
_citation_page_first
_citation_page_last
_citation_journal_id_ASTM
primary 'Zeitschrift fuer Anorganische und Allgemeine Chemie (1950) (DE)' 1976
419 176 184 ZAACAB
loop_
_publ_author_name
'Kutoglu, A.'
_cell_length_a 11.193(6)
_cell_length_b 9.994(6)
_cell_length_c 7.153(4)
_cell_angle_alpha 90.
_cell_angle_beta 92.8(5)
_cell_angle_gamma 90.
_cell_volume 799.2
_cell_formula_units_Z 4
_symmetry_space_group_name_H-M 'P 1 21/n 1'
_symmetry_Int_Tables_number 14
_refine_ls_R_factor_all 0.069
loop_
_symmetry_equiv_pos_site_id
_symmetry_equiv_pos_as_xyz
1 '-x+1/2, y+1/2, -z+1/2'
2 '-x, -y, -z'
3 'x+1/2, -y+1/2, z+1/2'
4 'x, y, z'
loop_
_atom_type_symbol
_atom_type_oxidation_number
As2+ 2
S2- -2
loop_
_atom_site_label
_atom_site_type_symbol
_atom_site_symmetry_multiplicity
_atom_site_Wyckoff_symbol
_atom_site_fract_x
_atom_site_fract_y
_atom_site_fract_z
_atom_site_B_iso_or_equiv
_atom_site_occupancy
_atom_site_attached_hydrogens
As1 As2+ 4 e 0.500(2) 0.150(2) 0.195(2) . 1. 0
As2 As2+ 4 e 0.320(2) 0.351(2) 0.504(2) . 1. 0
As3 As2+ 4 e 0.260(2) 0.377(2) 0.040(2) . 1. 0
As4 As2+ 4 e 0.417(2) 0.489(2) 0.258(2) . 1. 0
S1 S2- 4 e 0.415(5) 0.157(6) 0.475(4) . 1. 0
S2 S2- 4 e 0.159(5) 0.335(6) 0.302(5) . 1. 0
S3 S2- 4 e 0.349(5) 0.182(6) -.016(4) . 1. 0
S4 S2- 4 e 0.572(5) 0.361(6) 0.203(4) . 1. 0
loop_
_atom_site_aniso_label
_atom_site_aniso_type_symbol
_atom_site_aniso_B_11
_atom_site_aniso_B_22
_atom_site_aniso_B_33
_atom_site_aniso_B_12
_atom_site_aniso_B_13
_atom_site_aniso_B_23
As1 As2+ 3.67(10) 6.12(13) 1.32(8) 1.37(9) -1.01(7) -.11(7)
As2 As2+ 3.92(10) 6.80(13) 0.86(9) 0.36(9) -.46(9) -.41(8)
As3 As2+ 3.37(9) 7.68(14) 0.88(8) 0.41(10) -.78(8) 0.21(13)
As4 As2+ 4.13(10) 5.48(12) 2.29(9) -.53(10) -.55(8) -.12(10)
S1 S2- 5.2(3) 6.7(3) 0.3(2) -.8(2) -.8(2) 0.2(2)
S2 S2- 3.9(2) 6.5(3) 1.3(2) -1.1(2) -.8(2) -.2(2)
S3 S2- 3.0(2) 8.5(4) 0.9(2) 0.8(2) -1.1(2) 0.9(2)
S4 S2- 3.4(2) 8.6(4) 2.7(2) -1.3(3) -.5(2) 0.2(2)
#End of TTdata_360-ICSD
