
#(C) 2019 by FIZ Karlsruhe - Leibniz Institute for Information Infrastructure.  All rights reserved.
data_101-ICSD
_database_code_ICSD 101
_audit_creation_date 1980-01-01
_audit_update_record 2012-02-01
_chemical_name_systematic 'Rubidium tris(thiocyanato)mercurate'
_chemical_formula_structural 'Rb (Hg (S C N)3)'
_chemical_formula_sum 'C3 Hg1 N3 Rb1 S3'
_chemical_name_structure_type RbHg(SCN)3
_exptl_crystal_density_diffrn 3.2
_publ_section_title
'Kristallstrukturen der Trithiocyanomercurate Rb Hg(S C N)3 und Cs Hg (S C N)3'
loop_
_citation_id
_citation_journal_full
_citation_year
_citation_journal_volume
_citation_page_first
_citation_page_last
_citation_journal_id_ASTM
primary 'Zeitschrift fuer Anorganische und Allgemeine Chemie (1950) (DE)' 1976
421 24 36 ZAACAB
loop_
_publ_author_name
'Thiele, G.'
'Messer, D.'
_cell_length_a 11.4067(50)
_cell_length_b 4.1670(8)
_cell_length_c 11.1026(36)
_cell_angle_alpha 90.
_cell_angle_beta 115.20(2)
_cell_angle_gamma 90.
_cell_volume 477.5
_cell_formula_units_Z 2
_symmetry_space_group_name_H-M 'P 1 21/m 1'
_symmetry_Int_Tables_number 11
_refine_ls_R_factor_all 0.062
loop_
_symmetry_equiv_pos_site_id
_symmetry_equiv_pos_as_xyz
1 'x, -y+1/2, z'
2 '-x, -y, -z'
3 '-x, y+1/2, -z'
4 'x, y, z'
loop_
_atom_type_symbol
_atom_type_oxidation_number
Hg2+ 2
Rb1+ 1
S2- -2
C4+ 4
N3- -3
loop_
_atom_site_label
_atom_site_type_symbol
_atom_site_symmetry_multiplicity
_atom_site_Wyckoff_symbol
_atom_site_fract_x
_atom_site_fract_y
_atom_site_fract_z
_atom_site_B_iso_or_equiv
_atom_site_occupancy
_atom_site_attached_hydrogens
Hg1 Hg2+ 2 e 0.14511(6) 0.25 0.72212(7) . 1. 0
Rb1 Rb1+ 2 e 0.40441(18) 0.25 0.27922(18) . 1. 0
S1 S2- 2 e 0.12047(42) 0.25 0.49205(43) . 1. 0
S2 S2- 2 e 0.67756(38) 0.25 0.19894(42) . 1. 0
S3 S2- 2 e 0.06713(56) 0.25 0.89165(59) . 1. 0
C1 C4+ 2 e 0.2749(19) 0.25 0.5273(15) . 1. 0
C2 C4+ 2 e 0.6383(16) 0.25 0.0323(19) . 1. 0
C3 C4+ 2 e 0.9102(18) 0.25 0.7985(22) . 1. 0
N1 N3- 2 e 0.3867(18) 0.25 0.5516(18) . 1. 0
N2 N3- 2 e 0.6133(24) 0.25 0.9257(17) . 1. 0
N3 N3- 2 e 0.8004(23) 0.25 0.7451(23) . 1. 0
loop_
_atom_site_aniso_label
_atom_site_aniso_type_symbol
_atom_site_aniso_beta_11
_atom_site_aniso_beta_22
_atom_site_aniso_beta_33
_atom_site_aniso_beta_12
_atom_site_aniso_beta_13
_atom_site_aniso_beta_23
Hg1 Hg2+ .00677(8) .07751(77) .00653(10) 0 0.00412(7) 0
Rb1 Rb1+ .00809(16) .0576(12) .00752(18) 0 0.00421(14) 0
S1 S2- .00535(32) .0741(35) .00472(37) 0 0.00115(29) 0
S2 S2- .00561(31) .0551(28) .00553(37) 0 0.00272(30) 0
S3 S2- .00717(45) .209(10) .00662(49) 0 0.00399(40) 0
C1 C4+ .0093(17) .074(13) .0022(11) 0 0.0040(12) 0
C2 C4+ .0067(13) .049(10) .0087(18) 0 0.0057(13) 0
C3 C4+ .0067(15) .063(13) .0095(20) 0 0.0050(15) 0
N1 N3- .0079(14) .104(17) .0066(15) 0 0.0044(13) 0
N2 N3- .0155(26) .073(13) .0040(14) 0 0.0032(16) 0
N3 N3- .0111(23) .101(17) .0105(21) 0 0.0071(18) 0
#End of TTdata_101-ICSD
