
#(C) 2019 by FIZ Karlsruhe - Leibniz Institute for Information Infrastructure.  All rights reserved.
data_302-ICSD
_database_code_ICSD 302
_audit_creation_date 1980-01-01
_audit_update_record 2011-02-01
_chemical_name_systematic 'Triiron bis(phosphate(V)) trihydrate'
_chemical_formula_structural 'Fe3 (P O4)2 (H2 O)3'
_chemical_formula_sum 'H6 Fe3 O11 P2'
_chemical_name_structure_type Fe3(PO4)2(H2O)3
_chemical_name_mineral Phosphoferrite
_exptl_crystal_density_diffrn 3.32
_publ_section_title

;
A mixed-valence solid-solution series' crystal structures of phosphoferrite,
Fe(II)3 (H2 O)3 (P O4)2, and Kryshanovskite, Fe(III)3 (O H)3 (P O4)2
;
loop_
_citation_id
_citation_journal_full
_citation_year
_citation_journal_volume
_citation_page_first
_citation_page_last
_citation_journal_id_ASTM
primary 'Inorganic Chemistry' 1976 15 316 321 INOCAJ
loop_
_publ_author_name
'Moore, P.B.'
'Araki, T.'
_cell_length_a 9.460(2)
_cell_length_b 10.024(3)
_cell_length_c 8.670(2)
_cell_angle_alpha 90.
_cell_angle_beta 90.
_cell_angle_gamma 90.
_cell_volume 822.15
_cell_formula_units_Z 4
_symmetry_space_group_name_H-M 'P b n a'
_symmetry_Int_Tables_number 60
_refine_ls_R_factor_all 0.024
loop_
_symmetry_equiv_pos_site_id
_symmetry_equiv_pos_as_xyz
1 '-x, y+1/2, z'
2 'x+1/2, y, -z+1/2'
3 'x+1/2, -y+1/2, z+1/2'
4 '-x, -y, -z'
5 'x, -y+1/2, -z'
6 '-x+1/2, -y, z+1/2'
7 '-x+1/2, y+1/2, -z+1/2'
8 'x, y, z'
loop_
_atom_type_symbol
_atom_type_oxidation_number
Fe2+ 2
P5+ 5
O2- -2
H1+ 1
loop_
_atom_site_label
_atom_site_type_symbol
_atom_site_symmetry_multiplicity
_atom_site_Wyckoff_symbol
_atom_site_fract_x
_atom_site_fract_y
_atom_site_fract_z
_atom_site_B_iso_or_equiv
_atom_site_occupancy
_atom_site_attached_hydrogens
Fe1 Fe2+ 4 a 0 0 0 . 1. 0
Fe2 Fe2+ 8 d 0.06348(3) 0.09782(2) 0.63668(3) . 1. 0
P1 P5+ 8 d 0.20288(5) 0.10670(4) 0.29122(5) . 1. 0
O1 O2- 8 d 0.21539(14) 0.25627(12) 0.33460(16) . 1. 0
O2 O2- 8 d 0.10316(13) 0.03661(14) 0.40657(14) . 1. 0
O3 O2- 8 d 0.35040(13) 0.04224(13) 0.29614(14) . 1. 0
O4 O2- 8 d 0.14429(15) 0.09993(13) 0.12530(14) . 1. 0
O5 O2- 4 c -.08684(26) 0.25 0.5 . 1. 0
O6 O2- 8 d -.02832(14) 0.32797(13) 0.14766(15) . 1. 0
H1 H1+ 8 d -.134 0.2 0.446 1.49 1. 0
H2 H1+ 8 d -.1 0.31 0.156 0.82 1. 0
H3 H1+ 8 d 0.023 0.268 0.133 0.82 1. 0
loop_
_atom_site_aniso_label
_atom_site_aniso_type_symbol
_atom_site_aniso_beta_11
_atom_site_aniso_beta_22
_atom_site_aniso_beta_33
_atom_site_aniso_beta_12
_atom_site_aniso_beta_13
_atom_site_aniso_beta_23
Fe1 Fe2+ 0.00249(3) 0.00149(3) 0.00226(4) -.00026(2) -.00074(3) -.00002(5)
Fe2 Fe2+ 0.00214(3) 0.00173(3) 0.00213(4) 0.00050(2) -.00001(2) 0.00019(2)
P1 P5+ 0.00122(4) 0.00134(4) 0.00179(5) -.00008(3) -.00005(3) 0.00006(3)
O1 O2- 0.00204(11) 0.00143(10) 0.00376(15) -.00002(9) 0.00007(10) 0.00046(9)
O2 O2- 0.00203(11) 0.00246(11) 0.00231(13) -.00068(8) -.00033(10) 0.00015(9)
O3 O2- 0.00154(10) 0.00229(11) 0.00358(14) 0.00061(9) -.00007(10) 0.00035(10)
O4 O2- 0.00268(13) 0.00289(11) 0.00197(13) -.00056(10) -.00043(10) -.00019(9)
O5 O2- 0.00442(21) 0.00305(18) 0.00553(26) 0 0 -.00056(16)
O6 O2- 0.00088(11) 0.00259(10) 0.00405(14) -.00035(9) -.00043(10) 0.00013(9)
#End of TTdata_302-ICSD
