
#(C) 2019 by FIZ Karlsruhe - Leibniz Institute for Information Infrastructure.  All rights reserved.
data_110-ICSD
_database_code_ICSD 110
_audit_creation_date 1980-01-01
_audit_update_record 2009-08-01
_chemical_name_systematic
'Bis(tetracarbonylmanganese) bis(bromotinpentacarbonylmanganate)'
_chemical_formula_structural '(Mn (C O)4)2 ((Sn Br) Mn (C O)5)2'
_chemical_formula_sum 'C18 Br2 Mn4 O18 Sn2'
_chemical_name_structure_type Mn4Ge2Br2(CO)18
_exptl_crystal_density_diffrn 2.46
_publ_section_title
'Molekuel- und Kristallstruktur von Mn2 (C O)8 (mue-Sn (Br) Mn (C O)5)2'
loop_
_citation_id
_citation_journal_full
_citation_year
_citation_journal_volume
_citation_page_first
_citation_page_last
_citation_journal_id_ASTM
primary 'Zeitschrift fuer Anorganische und Allgemeine Chemie (1950) (DE)' 1976
422 47 53 ZAACAB
loop_
_publ_author_name
'Preut, H.'
'Haupt, H.J.'
_cell_length_a 8.817
_cell_length_b 12.376
_cell_length_c 15.511
_cell_angle_alpha 90.
_cell_angle_beta 63.54
_cell_angle_gamma 90.
_cell_volume 1515.25
_cell_formula_units_Z 2
_symmetry_space_group_name_H-M 'P 1 21/n 1'
_symmetry_Int_Tables_number 14
_refine_ls_R_factor_all 0.027
loop_
_symmetry_equiv_pos_site_id
_symmetry_equiv_pos_as_xyz
1 '-x+1/2, y+1/2, -z+1/2'
2 '-x, -y, -z'
3 'x+1/2, -y+1/2, z+1/2'
4 'x, y, z'
loop_
_atom_type_symbol
_atom_type_oxidation_number
Sn4+ 4
Br1- -1
Mn1- -1.5
C2+ 2
O2- -2
C2+ 2
O2- -2
C2+ 2
O2- -2
C2+ 2
O2- -2
C2+ 2
O2- -2
C2+ 2
O2- -2
C2+ 2
O2- -2
C2+ 2
O2- -2
C2+ 2
O2- -2
loop_
_atom_site_label
_atom_site_type_symbol
_atom_site_symmetry_multiplicity
_atom_site_Wyckoff_symbol
_atom_site_fract_x
_atom_site_fract_y
_atom_site_fract_z
_atom_site_B_iso_or_equiv
_atom_site_occupancy
_atom_site_attached_hydrogens
Sn1 Sn4+ 4 e 0.06179(3) 0.33289(1) 0.47841(1) . 1. 0
Br1 Br1- 4 e -.18829(6) 0.21366(3) 0.49863(4) . 1. 0
Mn1 Mn1- 4 e -.05007(7) 0.48685(4) 0.60825(4) . 1. 0
Mn2 Mn1- 4 e 0.31054(8) 0.19248(5) 0.43175(4) . 1. 0
C1 C2+ 4 e 0.47525(68) 0.09076(45) 0.40407(37) . 1. 0
O1 O2- 4 e 0.57880(54) 0.02761(38) 0.38774(33) . 1. 0
C2 C2+ 4 e 0.15199(69) 0.10785(41) 0.52776(38) . 1. 0
O2 O2- 4 e 0.05310(54) 0.05617(31) 0.58778(28) . 1. 0
C3 C2+ 4 e 0.36183(55) 0.26041(41) 0.52336(37) . 1. 0
O3 O2- 4 e 0.39050(46) 0.30067(32) 0.57874(27) . 1. 0
C4 C2+ 4 e 0.45553(65) 0.28469(46) 0.33670(39) . 1. 0
O4 O2- 4 e 0.54548(52) 0.33885(36) 0.27654(29) . 1. 0
C5 C2+ 4 e 0.24140(64) 0.13577(43) 0.34294(37) . 1. 0
O5 O2- 4 e 0.20411(50) 0.10043(33) 0.28857(26) . 1. 0
C6 C2+ 4 e -.26927(57) 0.45688(36) 0.62878(31) . 1. 0
O6 O2- 4 e -.40516(41) 0.43924(32) 0.64713(27) . 1. 0
C7 C2+ 4 e -.06507(60) 0.37230(43) 0.68389(35) . 1. 0
O7 O2- 4 e -.08198(55) 0.30220(33) 0.73558(29) . 1. 0
C8 C2+ 4 e 0.17095(60) 0.51816(39) 0.58535(34) . 1. 0
O8 O2- 4 e 0.30232(44) 0.53850(33) 0.57708(29) . 1. 0
C9 C2+ 4 e -.12753(61) 0.58339(39) 0.70607(33) . 1. 0
O9 O2- 4 e -.17919(51) 0.64045(30) 0.77001(24) . 1. 0
loop_
_atom_site_aniso_label
_atom_site_aniso_type_symbol
_atom_site_aniso_beta_11
_atom_site_aniso_beta_22
_atom_site_aniso_beta_33
_atom_site_aniso_beta_12
_atom_site_aniso_beta_13
_atom_site_aniso_beta_23
Sn1 Sn4+ 0.01 0.00415 0.00344 0.00028 -.00226 -.00018
Br1 Br1- 0.01352 0.00585 0.0081 -.00134 -.0044 -.00097
Mn1 Mn1- 0.00931 0.00411 0.00275 -.00001 -.00021 -.00005
Mn2 Mn1- 0.01127 0.00478 0.00361 0.00142 -.00212 -.00018
C1 C2+ 0.01786 0.00763 0.00523 0.00392 -.00245 -.00028
O1 O2- 0.02701 0.01263 0.00948 0.01128 -.00489 -.00104
C2 C2+ 0.01867 0.00545 0.00565 0.00073 -.0056 -.00022
O2 O2- 0.02775 0.00761 0.00667 -.00385 -.00375 0.00222
C3 C2+ 0.01027 0.00672 0.00519 0.00029 -.00235 0.00107
O3 O2- 0.01818 0.01043 0.00627 -.00121 -.00608 -.00068
C4 C2+ 0.01345 0.00784 0.00537 0.00195 -.00215 -.00048
O4 O2- 0.02247 0.01093 0.00694 -.00259 0.00078 0.00195
C5 C2+ 0.01533 0.00614 0.00458 0.00159 -.00152 0.00008
O5 O2- 0.02238 0.01042 0.00517 -.00118 -.00459 -.00148
C6 C2+ 0.01131 0.00501 0.00378 0.00034 -.00205 -.00061
O6 O2- 0.01103 0.01083 0.00782 -.00139 -.00324 -.00194
C7 C2+ 0.01378 0.00706 0.0045 0.00101 -.00352 0.00024
O7 O2- 0.0302 0.00903 0.00707 0.00097 -.00688 0.00311
C8 C2+ 0.01353 0.00612 0.00445 0.00007 -.00354 0.00031
O8 O2- 0.0152 0.01121 0.00917 -.0023 -.00767 0.0013
C9 C2+ 0.01619 0.0057 0.00386 -.0015 -.0034 0.00028
O9 O2- 0.02884 0.00771 0.00418 -.00112 -.00364 -.00187
#End of TTdata_110-ICSD
