
#(C) 2019 by FIZ Karlsruhe - Leibniz Institute for Information Infrastructure.  All rights reserved.
data_127-ICSD
_database_code_ICSD 127
_audit_creation_date 1980-01-01
_audit_update_record 2009-08-01
_chemical_name_systematic 'Ammonium trierbium fluoride'
_chemical_formula_structural '(N H4) Er3 F10'
_chemical_formula_sum 'H4 Er3 F10 N1'
_exptl_crystal_density_diffrn 6.22
_publ_section_title

;
Kristallicheskaya struktura N H4 Er3 F10 chetyrekhsloinyikationnyi karkas
"Flyuoritovogo" tipa
;
loop_
_citation_id
_citation_journal_full
_citation_year
_citation_journal_volume
_citation_page_first
_citation_page_last
_citation_journal_id_ASTM
primary 'Zhurnal Strukturnoi Khimii' 1976 17 147 152 ZSTKAI
loop_
_publ_author_name
'Podberezskaya, N.V.'
'Baidina, I.A.'
'Borisov, S.V.'
'Belov, N.'
_cell_length_a 8.1
_cell_length_b 8.1
_cell_length_c 13.34
_cell_angle_alpha 90.
_cell_angle_beta 90.
_cell_angle_gamma 120.
_cell_volume 757.98
_cell_formula_units_Z 4
_symmetry_space_group_name_H-M 'P 63 m c'
_symmetry_Int_Tables_number 186
_refine_ls_R_factor_all 0.118
loop_
_symmetry_equiv_pos_site_id
_symmetry_equiv_pos_as_xyz
1 '-x, -x+y, z+1/2'
2 'x-y, -y, z+1/2'
3 'y, x, z+1/2'
4 'x-y, x, z+1/2'
5 'y, -x+y, z+1/2'
6 '-x, -y, z+1/2'
7 'x, x-y, z'
8 '-x+y, y, z'
9 '-y, -x, z'
10 '-x+y, -x, z'
11 '-y, x-y, z'
12 'x, y, z'
loop_
_atom_type_symbol
_atom_type_oxidation_number
Er3+ 3
F1- -1
N3- -3
H1+ 1
loop_
_atom_site_label
_atom_site_type_symbol
_atom_site_symmetry_multiplicity
_atom_site_Wyckoff_symbol
_atom_site_fract_x
_atom_site_fract_y
_atom_site_fract_z
_atom_site_B_iso_or_equiv
_atom_site_occupancy
_atom_site_attached_hydrogens
Er1 Er3+ 6 c 0.5057 0.4943 -.0057 0.023 1. 0
Er2 Er3+ 6 c 0.3494 0.1747 0.237 0.13 1. 0
F1 F1- 6 c 0.116 0.232 0.201 0.46 1. 0
F2 F1- 6 c 0.216 0.432 0.042 0.65 1. 0
F3 F1- 6 c 0.514 0.486 0.178 1.07 1. 0
F4 F1- 12 d 0.336 0.327 0.365 0.96 1. 0
F5 F1- 2 b 0.6666 0.3333 -.036 2.76 1. 0
F6 F1- 2 b 0.6666 0.3333 0.311 1.19 1. 0
F7 F1- 6 c 0.368 0.184 0.067 0.165 1. 0
N1 N3- 2 a 0 0 0.015 5.5 1. 0
N2 N3- 2 b 0.3333 0.6666 0.247 4.8 1. 0
#End of TTdata_127-ICSD
