
#(C) 2019 by FIZ Karlsruhe - Leibniz Institute for Information Infrastructure.  All rights reserved.
data_321-ICSD
_database_code_ICSD 321
_audit_creation_date 1980-01-01
_audit_update_record 2009-08-01
_chemical_name_systematic 'Bis(difluorobromine(III)) hexafluorogermanate'
_chemical_formula_structural '(Br F2)2 (Ge F6)'
_chemical_formula_sum 'Br2 F10 Ge1'
_exptl_crystal_density_diffrn 3.46
_publ_section_title

;
Fluoride crystal structures. part XXVI. bis(difluorobromonium(III) )
hexafluorogermanate(IV)
;
loop_
_citation_id
_citation_journal_full
_citation_year
_citation_journal_volume
_citation_page_first
_citation_page_last
_citation_journal_id_ASTM
primary
'Journal of the Chemical Society, Dalton Transactions: Inorganic Chemistry ' 1976 1976 175 177 JCDTBI
loop_
_publ_author_name
'Edwards, A.J.'
'Christe, K.'
_cell_length_a 5.07(1)
_cell_length_b 13.83(2)
_cell_length_c 6.45(1)
_cell_angle_alpha 90.
_cell_angle_beta 116.3(3)
_cell_angle_gamma 90.
_cell_volume 405.45
_cell_formula_units_Z 2
_symmetry_space_group_name_H-M 'P 1 21/c 1'
_symmetry_Int_Tables_number 14
_refine_ls_R_factor_all 0.087
loop_
_symmetry_equiv_pos_site_id
_symmetry_equiv_pos_as_xyz
1 'x, -y+1/2, z+1/2'
2 '-x, -y, -z'
3 '-x, y+1/2, -z+1/2'
4 'x, y, z'
loop_
_atom_type_symbol
_atom_type_oxidation_number
Ge4+ 4
Br3+ 3
F1- -1
loop_
_atom_site_label
_atom_site_type_symbol
_atom_site_symmetry_multiplicity
_atom_site_Wyckoff_symbol
_atom_site_fract_x
_atom_site_fract_y
_atom_site_fract_z
_atom_site_B_iso_or_equiv
_atom_site_occupancy
_atom_site_attached_hydrogens
Ge1 Ge4+ 2 a 0 0 1 2.12 1. 0
Br1 Br3+ 4 e 0.3142(5) 0.1357(2) 0.6652(4) 2.34 1. 0
F1 F1- 4 e 0.0123(38) 0.0350(13) 0.7329(27) 3.03 1. 0
F2 F1- 4 e 0.7287(38) 0.0953(13) 0.9490(28) 3.86 1. 0
F3 F1- 4 e 0.2692(38) 0.0839(13) 0.1547(28) 3.38 1. 0
F4 F1- 4 e 0.5301(40) 0.2143(15) 0.5953(31) 4.48 1. 0
F5 F1- 4 e 0.0077(41) 0.1782(16) 0.4434(30) 4.13 1. 0
#End of TTdata_321-ICSD
