
#(C) 2019 by FIZ Karlsruhe - Leibniz Institute for Information Infrastructure.  All rights reserved.
data_347-ICSD
_database_code_ICSD 347
_audit_creation_date 1980-01-01
_audit_update_record 2011-08-01
_chemical_name_systematic 'Tribarium cyclo-triphosphate(V) hexahydrate'
_chemical_formula_structural 'Ba3 (P3 O9)2 (H2 O)6'
_chemical_formula_sum 'H12 Ba3 O24 P6'
_exptl_crystal_density_diffrn 3.04
_publ_section_title 'Trimetaphosphate de baryum hexahydrate'
loop_
_citation_id
_citation_journal_full
_citation_year
_citation_journal_volume
_citation_page_first
_citation_page_last
_citation_journal_id_ASTM
primary

;
Acta Crystallographica, Section B: Structural Crystallography and Crystal
Chemistry
; 1976 32 1892 1894 ACBCAR
loop_
_publ_author_name
'Masse, R.'
'Guitel, J.C.'
'Durif, A.'
_cell_length_a 7.547(4)
_cell_length_b 11.975(6)
_cell_length_c 13.068(8)
_cell_angle_alpha 108.58(8)
_cell_angle_beta 100.35(8)
_cell_angle_gamma 95.54(8)
_cell_volume 1086.17
_cell_formula_units_Z 2
_symmetry_space_group_name_H-M 'P -1'
_symmetry_Int_Tables_number 2
_refine_ls_R_factor_all 0.042
loop_
_symmetry_equiv_pos_site_id
_symmetry_equiv_pos_as_xyz
1 '-x, -y, -z'
2 'x, y, z'
loop_
_atom_type_symbol
_atom_type_oxidation_number
Ba2+ 2
P5+ 5
O2- -2
H1+ 1
loop_
_atom_site_label
_atom_site_type_symbol
_atom_site_symmetry_multiplicity
_atom_site_Wyckoff_symbol
_atom_site_fract_x
_atom_site_fract_y
_atom_site_fract_z
_atom_site_B_iso_or_equiv
_atom_site_occupancy
_atom_site_attached_hydrogens
Ba1 Ba2+ 2 i -.00342(6) 0.17132(3) 0.25678(4) . 1. 0
Ba2 Ba2+ 2 i 0.42428(6) 0.97865(4) 0.30722(4) . 1. 0
Ba3 Ba2+ 2 i 0.75844(4) 0.38922(4) 0.01922(3) . 1. 0
P1 P5+ 2 i 0.1803(2) 0.2951(1) 0.0359(1) . 1. 0
P2 P5+ 2 i 0.3771(2) 0.1142(1) -.0739(1) . 1. 0
P3 P5+ 2 i 0.4825(2) 0.2287(2) 0.1621(1) . 1. 0
P4 P5+ 2 i 0.7935(2) 0.1811(2) 0.5170(1) . 1. 0
P5 P5+ 2 i 0.0778(2) 0.1235(2) 0.6603(1) . 1. 0
P6 P5+ 2 i 0.9209(2) 0.3352(2) 0.7452(1) . 1. 0
O1 O2- 2 i 0.4150(7) 0.1124(4) 0.0504(4) . 1. 0
O2 O2- 2 i 0.3721(7) 0.3247(4) 0.1230(3) . 1. 0
O3 O2- 2 i 0.2215(6) 0.1964(5) -.0695(3) . 1. 0
O4 O2- 2 i 0.0854(7) 0.2597(4) 0.7373(4) . 1. 0
O5 O2- 2 i 0.8357(7) 0.3087(4) 0.6158(4) . 1. 0
O6 O2- 2 i -.0197(7) 0.1302(4) 0.5426(4) . 1. 0
O7 O2- 2 i 0.1464(7) 0.4016(5) 0.0066(4) . 1. 0
O8 O2- 2 i 0.0312(7) 0.2385(5) 0.0731(4) . 1. 0
O9 O2- 2 i 0.2987(7) -.0078(5) -.1510(4) . 1. 0
O10 O2- 2 i 0.5409(7) 0.1764(5) -.0933(4) . 1. 0
O11 O2- 2 i 0.6790(7) 0.2746(5) 0.1777(4) . 1. 0
O12 O2- 2 i 0.4057(7) 0.1979(5) 0.2476(4) . 1. 0
O13 O2- 2 i 0.6379(7) 0.1061(5) 0.5294(4) . 1. 0
O14 O2- 2 i 0.7817(6) 0.2012(4) 0.4103(4) . 1. 0
O15 O2- 2 i 0.9554(7) 0.0404(5) 0.6904(5) . 1. 0
O16 O2- 2 i 0.2681(6) 0.1071(5) 0.6549(4) . 1. 0
O17 O2- 2 i -.0003(7) 0.4634(5) 0.7919(4) . 1. 0
O18 O2- 2 i 0.7858(6) 0.2845(5) 0.7951(4) . 1. 0
O19 O2- 2 i 0.1405(6) 0.9823(5) 0.1149(4) . 1. 0
O20 O2- 2 i 0.2798(7) 0.1885(6) 0.4424(4) . 1. 0
O21 O2- 2 i 0.4415(7) 0.4256(5) 0.8679(4) . 1. 0
O22 O2- 2 i 0.0935(13) 0.4161(6) 0.3512(6) . 1. 0
O23 O2- 2 i 0.2760(18) 0.5593(8) 0.5649(7) . 1. 0
O24 O2- 2 i 0.4751(14) 0.4114(11) 0.6425(8) . 1. 0
loop_
_atom_site_aniso_label
_atom_site_aniso_type_symbol
_atom_site_aniso_beta_11
_atom_site_aniso_beta_22
_atom_site_aniso_beta_33
_atom_site_aniso_beta_12
_atom_site_aniso_beta_13
_atom_site_aniso_beta_23
Ba1 Ba2+ 0.00649(7) 0.00215(3) 0.00222(3) 0.00013(4) 0.00089(3) 0.00066(2)
Ba2 Ba2+ 0.00587(7) 0.00366(3) 0.00199(2) 0.00158(3) 0.00100(3) 0.00095(2)
Ba3 Ba2+ 0.00538(7) 0.00170(3) 0.00220(2) 0.00003(3) 0.00058(3) 0.00044(2)
P1 P5+ 0.0043(3) 0.0016(1) 0.0018(1) 0.0005(1) 0.0007(1) 0.00061(9)
P2 P5+ 0.0046(3) 0.0013(1) 0.0019(1) 0.0002(1) 0.0006(1) 0.0002(1)
P3 P5+ 0.0052(3) 0.0025(1) 0.0019(1) -.00009(16) 0.0001(1) 0.0008(1)
P4 P5+ 0.0047(3) 0.0018(1) 0.0012(1) -.00002(15) 0.0002(1) 0.00008(9)
P5 P5+ 0.0048(3) 0.0019(1) 0.0018(1) 0.0008(1) 0.0005(1) 0.00037(9)
P6 P5+ 0.0062(3) 0.0017(1) 0.0015(1) 0.0003(2) 0.0007(1) 0.00007(9)
O1 O2- 0.0077(9) 0.0023(4) 0.0021(3) 0.0006(5) 0.0006(4) 0.0009(3)
O2 O2- 0.0073(9) 0.0016(4) 0.0027(4) 0.0009(5) -.0007(5) 0.0000(3)
O3 O2- 0.0095(10) 0.0044(4) 0.0020(3) 0.0037(5) 0.00045(4) 0.0004(3)
O4 O2- 0.0071(9) 0.0024(3) 0.0016(3) 0.0005(5) -.0004(4) 0.0002(3)
O5 O2- 0.0075(9) 0.0018(3) 0.0017(3) 0.0007(4) 0.0001(4) 0.0000(3)
O6 O2- 0.0070(9) 0.0024(4) 0.0019(3) 0.0019(5) 0.0009(4) 0.0003(3)
O7 O2- 0.0080(9) 0.0025(4) 0.0037(4) 0.0015(5) 0.0009(5) 0.0013(3)
O8 O2- 0.0061(9) 0.0036(4) 0.0037(4) -.0003(4) 0.0015(4) 0.0017(3)
O9 O2- 0.0097(12) 0.0020(4) 0.0033(4) 0.0003(5) -.0009(5) -.0001(3)
O10 O2- 0.0095(10) 0.0041(4) 0.0023(3) -.0016(5) 0.0019(5) 0.0000(3)
O11 O2- 0.0055(9) 0.0038(4) 0.0029(4) 0.0000(5) 0.0005(4) 0.0017(3)
O12 O2- 0.0096(10) 0.0041(4) 0.0026(4) -.0001(5) 0.0017(5) 0.0015(3)
O13 O2- 0.0055(9) 0.0041(4) 0.0024(3) -.0011(5) 0.0008(4) 0.0001(3)
O14 O2- 0.0113(10) 0.0046(4) 0.0016(3) 0.0024(5) 0.0011(4) 0.0007(3)
O15 O2- 0.0093(9) 0.0025(4) 0.0031(3) 0.0006(5) 0.0013(4) 0.0012(3)
O16 O2- 0.0065(9) 0.0044(4) 0.0043(4) 0.0021(5) 0.0006(5) 0.0011(3)
O17 O2- 0.0125(10) 0.0017(3) 0.0023(3) 0.0005(5) -.0006(4) -.0005(3)
O18 O2- 0.0083(9) 0.0052(4) 0.0024(3) -.0001(5) 0.0021(4) 0.0009(3)
O19 O2- 0.0096(10) 0.0038(4) 0.0042(4) -.0002(5) 0.0019(5) 0.0011(3)
O20 O2- 0.0116(11) 0.0067(6) 0.0049(5) 0.0009(6) 0.0012(6) 0.0020(4)
O21 O2- 0.0111(11) 0.0045(4) 0.0035(4) 0.0001(5) 0.0006(5) 0.0009(4)
O22 O2- 0.0484(29) 0.0034(5) 0.0071(6) -.0028(9) -.0060(11) 0.0014(5)
O23 O2- 0.0743(45) 0.0088(9) 0.0076(8) 0.0119(16) -.0011(15) 0.0016(7)
O24 O2- 0.0288(27) 0.0227(17) 0.0171(13) 0.0125(17) 0.0071(14) 0.0083(12)
#End of TTdata_347-ICSD
