
#(C) 2019 by FIZ Karlsruhe - Leibniz Institute for Information Infrastructure.  All rights reserved.
data_298-ICSD
_database_code_ICSD 298
_audit_creation_date 1980-01-01
_audit_update_record 2000-07-15
_chemical_name_systematic 'Potassium aluminium oxide (12.5/21.8/38)'
_chemical_formula_structural 'K2.6 Al21.83 O33.9'
_chemical_formula_sum 'Al21.83 K2.6 O33.9'
_chemical_name_structure_type HAl11O17
_exptl_crystal_density_diffrn 3.33
_publ_section_title

;
Structural determinations of single-crystal K beta-alumina and cobalt-doped K
beta-alumina
;
loop_
_citation_id
_citation_journal_full
_citation_year
_citation_journal_volume
_citation_page_first
_citation_page_last
_citation_journal_id_ASTM
primary 'Journal of Solid State Chemistry' 1976 17 245 253 JSSCBI
loop_
_publ_author_name
'Dernier, P.D.'
'Remeika, J.P.'
_cell_length_a 5.591(2)
_cell_length_b 5.591(2)
_cell_length_c 22.711(3)
_cell_angle_alpha 90.
_cell_angle_beta 90.
_cell_angle_gamma 120.
_cell_volume 614.82
_cell_formula_units_Z 1
_symmetry_space_group_name_H-M 'P 63/m m c'
_symmetry_Int_Tables_number 194
_refine_ls_R_factor_all 0.056
loop_
_symmetry_equiv_pos_site_id
_symmetry_equiv_pos_as_xyz
1 'x, x-y, -z+1/2'
2 '-x+y, y, -z+1/2'
3 '-y, -x, -z+1/2'
4 '-x+y, -x, -z+1/2'
5 '-y, x-y, -z+1/2'
6 'x, y, -z+1/2'
7 '-x, -x+y, z+1/2'
8 'x-y, -y, z+1/2'
9 'y, x, z+1/2'
10 'x-y, x, z+1/2'
11 'y, -x+y, z+1/2'
12 '-x, -y, z+1/2'
13 '-x, -x+y, -z'
14 'x-y, -y, -z'
15 'y, x, -z'
16 'x-y, x, -z'
17 'y, -x+y, -z'
18 '-x, -y, -z'
19 'x, x-y, z'
20 '-x+y, y, z'
21 '-y, -x, z'
22 '-x+y, -x, z'
23 '-y, x-y, z'
24 'x, y, z'
loop_
_atom_type_symbol
_atom_type_oxidation_number
Al3+ 3
O2- -2
K1+ 1
loop_
_atom_site_label
_atom_site_type_symbol
_atom_site_symmetry_multiplicity
_atom_site_Wyckoff_symbol
_atom_site_fract_x
_atom_site_fract_y
_atom_site_fract_z
_atom_site_B_iso_or_equiv
_atom_site_occupancy
_atom_site_attached_hydrogens
Al1 Al3+ 12 k 0.83203(6) 0.66406 0.10489(3) . 1. 0
Al2 Al3+ 4 f 0.3333 0.6667 0.02455(5) . 0.958 0
Al3 Al3+ 4 f 0.3333 0.6667 0.17484(5) . 1. 0
Al4 Al3+ 2 a 0 0 0 . 1. 0
O1 O2- 12 k 0.1570(1) 0.314 0.04944(7) . 1. 0
O2 O2- 12 k 0.5029(1) 0.0058 0.14602(7) . 1. 0
O3 O2- 4 f 0.6667 0.3333 0.0551(1) . 1. 0
O4 O2- 4 e 0 0 0.1416(1) . 1. 0
O5 O2- 6 h 0.3108(8) 0.6216 0.25 . 0.318 0
K1 K1+ 6 h 0.6883(3) 0.3766 0.25 . 0.237 0
K2 K1+ 6 h 0.8852(6) 0.7704 0.25 . 0.203 0
loop_
_atom_site_aniso_label
_atom_site_aniso_type_symbol
_atom_site_aniso_beta_11
_atom_site_aniso_beta_22
_atom_site_aniso_beta_33
_atom_site_aniso_beta_12
_atom_site_aniso_beta_13
_atom_site_aniso_beta_23
Al1 Al3+ 0.0056(2) 0.0049(3) 0.00020(1) 0 0 0.00002(3)
Al2 Al3+ 0.030(3) 0.030(3) 0.00009(1) 0 0 0
Al3 Al3+ 0.0069(5) 0.0069(5) 0.00012(2) 0 0 0
Al4 Al3+ 0.0041(5) 0.0041(5) 0.00010(2) 0 0 0
O1 O2- 0.0063(5) 0.0035(4) 0.00020(2) 0 0 0.00001(7)
O2 O2- 0.0045(3) 0.0055(5) 0.00026(2) 0 0 0.0010(6)
O3 O2- 0.0047(8) 0.0047(8) 0.00015(3) 0 0 0
O4 O2- 0.0038(7) 0.0038(7) 0.00017(3) 0 0 0
O5 O2- 0.015(2) 0.015(5) 0.00013(6) 0 0 0
K1 K1+ 0.0111(6) 0.015(2) 0.00025(3) 0 0 0
K2 K1+ 0.017(1) 0.031(2) 0.00039(4) 0 0 0
#End of TTdata_298-ICSD
