
#(C) 2019 by FIZ Karlsruhe - Leibniz Institute for Information Infrastructure.  All rights reserved.
data_161-ICSD
_database_code_ICSD 161
_audit_creation_date 1980-01-01
_audit_update_record 2013-02-01
_chemical_name_systematic 'Manganese silicide carbide (7.5/1.8/1.3)'
_chemical_formula_structural 'Mn7.53 Si1.8 C1.33'
_chemical_formula_sum 'C1.33 Mn7.53 Si1.8'
_exptl_crystal_density_diffrn 6.7
_publ_section_title 'Etude structurale de la phase Mn8 Si2 C'
loop_
_citation_id
_citation_journal_full
_citation_year
_citation_journal_volume
_citation_page_first
_citation_page_last
_citation_journal_id_ASTM
primary

;
Acta Crystallographica, Section B: Structural Crystallography and Crystal
Chemistry
; 1975 31 541 547 ACBCAR
loop_
_publ_author_name
'Spinat, P.'
'Brouty, C.'
'Whuler, A.'
'Herpin, P.'
_cell_length_a 6.4492(5)
_cell_length_b 6.5187(7)
_cell_length_c 9.944(2)
_cell_angle_alpha 84.709(8)
_cell_angle_beta 99.588(8)
_cell_angle_gamma 119.979(8)
_cell_volume 357.04
_cell_formula_units_Z 3
_symmetry_space_group_name_H-M 'P 1'
_symmetry_Int_Tables_number 1
_refine_ls_R_factor_all 0.12
loop_
_symmetry_equiv_pos_site_id
_symmetry_equiv_pos_as_xyz
1 'x, y, z'
loop_
_atom_type_symbol
_atom_type_oxidation_number
Mn0+ 0
Si0+ 0
C0+ 0
loop_
_atom_site_label
_atom_site_type_symbol
_atom_site_symmetry_multiplicity
_atom_site_Wyckoff_symbol
_atom_site_fract_x
_atom_site_fract_y
_atom_site_fract_z
_atom_site_B_iso_or_equiv
_atom_site_occupancy
_atom_site_attached_hydrogens
Mn1 Mn0+ 1 a 0.22 0.56 0.57 0.3(8) 1. 0
Mn2 Mn0+ 1 a 0.4545(21) 0.0059(24) 0.5319(14) 0.0(8) 1. 0
Mn3 Mn0+ 1 a 0.5135(26) 0.3869(28) 0.6012(17) 0.2(8) 1. 0
Mn4 Mn0+ 1 a 0.2117(23) 0.6357(25) 0.2813(15) 0.1(8) 1. 0
Mn5 Mn0+ 1 a 0.8892(15) 0.2108(17) 0.2049(13) 0.1(8) 1. 0
Mn6 Mn0+ 1 a 0.6568(23) 0.7619(26) 0.2427(15) 0.2(8) 1. 0
Mn7 Mn0+ 1 a 0.8982(24) 0.1173(26) 0.4529(16) 0.3(8) 1. 0
Mn8 Mn0+ 1 a 0.2112(25) 0.5914(27) 0.8395(16) 0.2(8) 1. 0
Mn9 Mn0+ 1 a 0.6720(24) 0.8309(25) 0.6984(15) 0.2(8) 1. 0
Mn10 Mn0+ 1 a 0.8971(25) 0.1765(26) 0.9273(15) 0.1(8) 1. 0
Mn11 Mn0+ 1 a 0.4396(23) 0.9250(24) 0.0382(15) 0.1(8) 1. 0
Mn12 Mn0+ 1 a 0.1319(23) 0.1892(26) 0.7107(15) 0.1(8) 1. 0
Mn13 Mn0+ 1 a 0.4508(22) 0.0320(24) 0.7723(15) 0.1(8) 1. 0
Mn14 Mn0+ 1 a 0.6528(24) 0.7123(26) 0.9633(16) 0.3(8) 1. 0
Mn15 Mn0+ 1 a 0.9947(26) 0.7624(28) 0.6283(17) 0.2(8) 1. 0
Mn16 Mn0+ 1 a 0.3610(23) 0.2760(24) 0.9236(15) 0.0(8) 1. 0
Mn17 Mn0+ 1 a 0.9787(23) 0.5803(26) 0.0572(16) 0.1(8) 1. 0
Mn18 Mn0+ 1 a 0.7489(24) 0.4801(25) 0.8150(14) 0.1(8) 1. 0
Mn19 Mn0+ 1 a 0.1070(27) 0.9933(29) 0.1311(18) 0.2(8) 1. 0
Mn20 Mn0+ 1 a 0.5944(23) 0.3656(25) 0.1479(15) 0.0(8) 1. 0
Mn21 Mn0+ 1 a 0.7869(26) 0.4480(29) 0.4130(17) 0.3(8) 1. 0
Mn22 Mn0+ 1 a 0.3258(23) 0.3157(25) 0.3529(15) 0.0(8) 1. 0
Mn23 Mn0+ 1 a 0.0597(30) 0.8755(32) 0.3728(32) 0.0(8) 0.6 0
Si1 Si0+ 1 a 0.0597(30) 0.8755(32) 0.3728(20) 0.0(8) 0.4 0
Si2 Si0+ 1 a 0.0529(64) 0.8802(69) 0.8773(37) 0.1(8) 1. 0
Si3 Si0+ 1 a 0.8285(40) 0.2923(44) 0.6522(25) 0.1(8) 1. 0
Si4 Si0+ 1 a 0.2742(42) 0.4629(46) 0.0908(26) 0.0(8) 1. 0
Si5 Si0+ 1 a 0.610(4) 0.707(4) 0.4560(25) 0.3(8) 1. 0
Si6 Si0+ 1 a 0.5093(27) 0.0357(29) 0.2899(20) 0.0(8) 1. 0
C1 C0+ 1 a 0.4400(99) 0.504(11) 0.7739(68) 0.2(8) 1. 0
C2 C0+ 1 a 0.6749(82) 0.2708(92) 0.0056(58) 0.1(8) 1. 0
C3 C0+ 1 a 0.204(11) 0.098(10) 0.5422(74) 0.2(8) 1. 0
C4 C0+ 1 a 0.898(11) 0.639(11) 0.2197(77) 0.5(8) 1. 0
#End of TTdata_161-ICSD
