
#(C) 2019 by FIZ Karlsruhe - Leibniz Institute for Information Infrastructure.  All rights reserved.
data_153-ICSD
_database_code_ICSD 153
_audit_creation_date 1980-01-01
_audit_update_record 2006-04-01
_chemical_name_systematic 'Molybdenum fluoride - LT'
_chemical_formula_structural 'Mo F6'
_chemical_formula_sum 'F6 Mo1'
_chemical_name_structure_type OsOF5
_exptl_crystal_density_diffrn 3.36
_cell_measurement_temperature 193.
_publ_section_title
'Structures of fluorides. IX. The orthorhombic form of molybdenum hexafluoride'
loop_
_citation_id
_citation_journal_full
_citation_year
_citation_journal_volume
_citation_page_first
_citation_page_last
_citation_journal_id_ASTM
primary

;
Acta Crystallographica, Section B: Structural Crystallography and Crystal
Chemistry
; 1975 31 398 401 ACBCAR
loop_
_publ_author_name
'Levy, J.H.'
'Taylor, J.C.'
'Wilson, P.W.'
_cell_length_a 9.559(9)
_cell_length_b 8.668(8)
_cell_length_c 5.015(5)
_cell_angle_alpha 90.
_cell_angle_beta 90.
_cell_angle_gamma 90.
_cell_volume 415.53
_cell_formula_units_Z 4
_symmetry_space_group_name_H-M 'P n m a'
_symmetry_Int_Tables_number 62
_refine_ls_R_factor_all 0.11
loop_
_symmetry_equiv_pos_site_id
_symmetry_equiv_pos_as_xyz
1 'x+1/2, y, -z+1/2'
2 'x, -y+1/2, z'
3 '-x+1/2, y+1/2, z+1/2'
4 '-x, -y, -z'
5 '-x+1/2, -y, z+1/2'
6 '-x, y+1/2, -z'
7 'x+1/2, -y+1/2, -z+1/2'
8 'x, y, z'
loop_
_atom_type_symbol
_atom_type_oxidation_number
Mo6+ 6
F1- -1
loop_
_atom_site_label
_atom_site_type_symbol
_atom_site_symmetry_multiplicity
_atom_site_Wyckoff_symbol
_atom_site_fract_x
_atom_site_fract_y
_atom_site_fract_z
_atom_site_B_iso_or_equiv
_atom_site_occupancy
_atom_site_attached_hydrogens
Mo1 Mo6+ 4 c 0.1224(12) 0.25 0.1043(35) 2.5 1. 0
F1 F1- 4 c 0.0155(14) 0.25 -.1978(30) 2.5 1. 0
F2 F1- 4 c 0.2559(17) 0.25 0.3744(71) 2.5 1. 0
F3 F1- 8 d 0.0221(11) 0.0993(11) 0.2446(20) 2.5 1. 0
F4 F1- 8 d 0.232(1) 0.1120(21) -.0711(42) 2.5 1. 0
#End of TTdata_153-ICSD
