
#(C) 2019 by FIZ Karlsruhe - Leibniz Institute for Information Infrastructure.  All rights reserved.
data_123-ICSD
_database_code_ICSD 123
_audit_creation_date 1986-08-07
_audit_update_record 2011-08-01
_chemical_name_systematic 'Tetraaquapraseodymium trinitrate(V) dihydrate'
_chemical_formula_structural '(Pr (H2 O)4) (N O3)3 (H2 O)2'
_chemical_formula_sum 'H12 N3 O15 Pr1'
_chemical_name_structure_type Sm(NO3)3(H2O)6
_exptl_crystal_density_diffrn 2.25
_publ_section_title
'Tris(nitrato)tetraaquopraseodymium(III) dihydrate, Pr (N O3)3 (H2 O)4 (H2 O)2'
loop_
_citation_id
_citation_journal_full
_citation_year
_citation_journal_volume
_citation_page_first
_citation_page_last
_citation_journal_id_ASTM
primary 'Crystal Structure Communications' 1976 5 349 352 CSCMCS
loop_
_publ_author_name
'Fuller, C.'
'Jacobson, R.A.'
_cell_length_a 9.234(26)
_cell_length_b 11.770(36)
_cell_length_c 6.778(20)
_cell_angle_alpha 91.17(8)
_cell_angle_beta 110.72(5)
_cell_angle_gamma 69.48(12)
_cell_volume 640.77
_cell_formula_units_Z 2
_symmetry_space_group_name_H-M 'P -1'
_symmetry_Int_Tables_number 2
_refine_ls_R_factor_all 0.052
loop_
_symmetry_equiv_pos_site_id
_symmetry_equiv_pos_as_xyz
1 '-x, -y, -z'
2 'x, y, z'
loop_
_atom_type_symbol
_atom_type_oxidation_number
Pr3+ 3
N5+ 5
O2- -2
H1+ 1
loop_
_atom_site_label
_atom_site_type_symbol
_atom_site_symmetry_multiplicity
_atom_site_Wyckoff_symbol
_atom_site_fract_x
_atom_site_fract_y
_atom_site_fract_z
_atom_site_B_iso_or_equiv
_atom_site_occupancy
_atom_site_attached_hydrogens
Pr1 Pr3+ 2 i 0.0987 0.2251 0.1972 . 1. 0
N1 N5+ 2 i 0.3279(7) 0.3234(5) 0.0814(10) . 1. 0
N2 N5+ 2 i -.2256(7) 0.3133(6) -.1765(9) . 1. 0
N3 N5+ 2 i 0.03326(7) -.0018(5) 0.0768(9) . 1. 0
O1 O2- 2 i 0.1896(7) 0.3284(5) -.0560(8) . 1. 0
O2 O2- 2 i 0.3652(7) 0.2728(5) 0.2628(9) . 1. 0
O3 O2- 2 i 0.4190(7) 0.3646(6) 0.0406(11) . 1. 0
O4 O2- 2 i -.1496(7) 0.2035(5) -.1018(9) . 1. 0
O5 O2- 2 i -.1567(8) 0.3848(5) -.0884(9) . 1. 0
O6 O2- 2 i -.3564(6) 0.3478(6) -.3280(9) . 1. 0
O7 O2- 2 i 0.1940(6) 0.0692(4) -.0532(7) . 1. 0
O8 O2- 2 i 0.3768(7) 0.0230(5) 0.2633(8) . 1. 0
O9 O2- 2 i 0.4196(7) -.0913(5) 0.0229(10) . 1. 0
O10 O2- 2 i -.1040(7) 0.2795(5) 0.372(1) . 1. 0
O11 O2- 2 i 0.0573(6) 0.4328(4) 0.3029(8) . 1. 0
O12 O2- 2 i 0.0538(6) 0.0404(4) 0.2841(8) . 1. 0
O13 O2- 2 i 0.2698(7) 0.1761(6) 0.5814(8) . 1. 0
O14 O2- 2 i -.2792(6) 0.1387(5) 0.4079(9) . 1. 0
O15 O2- 2 i 0.2980(7) 0.4852(5) 0.6223(10) . 1. 0
#End of TTdata_123-ICSD
