
#(C) 2019 by FIZ Karlsruhe - Leibniz Institute for Information Infrastructure.  All rights reserved.
data_322-ICSD
_database_code_ICSD 322
_audit_creation_date 1980-01-01
_audit_update_record 2009-08-01
_chemical_name_systematic 'Uranium(VI) fluoride'
_chemical_formula_structural 'U F6'
_chemical_formula_sum 'F6 U1'
_chemical_name_structure_type OsOF5
_exptl_crystal_density_diffrn 5.06
_cell_measurement_temperature 293.
_publ_section_title

;
Structure of fluorides. Part XII. Single-crystal neutron diffraction study of
uranium hexafluoride at 293 K
;
loop_
_citation_id
_citation_journal_full
_citation_year
_citation_journal_volume
_citation_page_first
_citation_page_last
_citation_journal_id_ASTM
primary
'Journal of the Chemical Society, Dalton Transactions: Inorganic Chemistry ' 1976 1976 219 224 JCDTBI
loop_
_publ_author_name
'Levy, J.H.'
'Taylor, J.C.'
'Wilson, P.W.'
_cell_length_a 9.900(2)
_cell_length_b 8.962(2)
_cell_length_c 5.207(2)
_cell_angle_alpha 90.
_cell_angle_beta 90.
_cell_angle_gamma 90.
_cell_volume 461.98
_cell_formula_units_Z 4
_symmetry_space_group_name_H-M 'P n m a'
_symmetry_Int_Tables_number 62
_refine_ls_R_factor_all 0.09
loop_
_symmetry_equiv_pos_site_id
_symmetry_equiv_pos_as_xyz
1 'x+1/2, y, -z+1/2'
2 'x, -y+1/2, z'
3 '-x+1/2, y+1/2, z+1/2'
4 '-x, -y, -z'
5 '-x+1/2, -y, z+1/2'
6 '-x, y+1/2, -z'
7 'x+1/2, -y+1/2, -z+1/2'
8 'x, y, z'
loop_
_atom_type_symbol
_atom_type_oxidation_number
U6+ 6
F1- -1
loop_
_atom_site_label
_atom_site_type_symbol
_atom_site_symmetry_multiplicity
_atom_site_Wyckoff_symbol
_atom_site_fract_x
_atom_site_fract_y
_atom_site_fract_z
_atom_site_B_iso_or_equiv
_atom_site_occupancy
_atom_site_attached_hydrogens
U1 U6+ 4 c 0.1295(2) 0.25 0.0799(4) . 1. 0
F1 F1- 4 c 0.0126(4) 0.25 -.2289(7) . 1. 0
F2 F1- 4 c 0.2471(4) 0.25 0.3895(7) . 1. 0
F3 F1- 8 d 0.0143(3) 0.0947(4) 0.2378(5) . 1. 0
F4 F1- 8 d 0.2443(3) 0.0937(4) -.0760(5) . 1. 0
loop_
_atom_site_aniso_label
_atom_site_aniso_type_symbol
_atom_site_aniso_beta_11
_atom_site_aniso_beta_22
_atom_site_aniso_beta_33
_atom_site_aniso_beta_12
_atom_site_aniso_beta_13
_atom_site_aniso_beta_23
U1 U6+ 0.0072(2) 0.0087(4) 0.0248(7) 0 -.0004(4) 0
F1 F1- 0.0111(5) 0.0153(9) 0.0330(15) 0 -.0051(7) 0
F2 F1- 0.0101(5) 0.0153(8) 0.0308(14) 0 -.0048(6) 0
F3 F1- 0.0110(3) 0.0121(6) 0.0389(11) -.0028(3) 0.0022(5) 0.0025(3)
F4 F1- 0.0117(4) 0.0125(6) 0.0433(11) 0.0030(3) 0.0033(5) -.0033(6)
#End of TTdata_322-ICSD
