
#(C) 2019 by FIZ Karlsruhe - Leibniz Institute for Information Infrastructure.  All rights reserved.
data_168-ICSD
_database_code_ICSD 168
_audit_creation_date 1980-01-01
_audit_update_record 2011-08-01
_chemical_name_systematic 'Barium dihydroxotrioxoruthenate(VI)'
_chemical_formula_structural 'Ba (Ru O3 (O H)2 )'
_chemical_formula_sum 'H2 Ba1 O5 Ru1'
_exptl_crystal_density_diffrn 4.32
_publ_section_title

;
Configuration de l'ion ruthenate: structure cristalline du
dihydroxotrioxoruthenate(VI) de baryum, Ba (Ru O3 (O H)2 )
;
loop_
_citation_id
_citation_journal_full
_citation_year
_citation_journal_volume
_citation_page_first
_citation_page_last
_citation_journal_id_ASTM
primary

;
Acta Crystallographica, Section B: Structural Crystallography and Crystal
Chemistry
; 1976 32 2413 2419 ACBCAR
loop_
_publ_author_name
'Novogorocki, G.'
'Abraham, F.'
'Trehoux, J.'
'Thomas, D.'
_cell_length_a 10.023
_cell_length_b 10.023
_cell_length_c 25.471
_cell_angle_alpha 90.
_cell_angle_beta 90.
_cell_angle_gamma 120.
_cell_volume 2216.01
_cell_formula_units_Z 18
_symmetry_space_group_name_H-M 'R -3 c H'
_symmetry_Int_Tables_number 167
_refine_ls_R_factor_all 0.023
loop_
_symmetry_equiv_pos_site_id
_symmetry_equiv_pos_as_xyz
1 'x-y, -y, -z+1/2'
2 '-x, -x+y, -z+1/2'
3 'y, x, -z+1/2'
4 'x-y, x, -z'
5 'y, -x+y, -z'
6 '-x, -y, -z'
7 '-x+y, y, z+1/2'
8 'x, x-y, z+1/2'
9 '-y, -x, z+1/2'
10 '-x+y, -x, z'
11 '-y, x-y, z'
12 'x, y, z'
13 'x-y+2/3, -y+1/3, -z+5/6'
14 '-x+2/3, -x+y+1/3, -z+5/6'
15 'y+2/3, x+1/3, -z+5/6'
16 'x-y+2/3, x+1/3, -z+1/3'
17 'y+2/3, -x+y+1/3, -z+1/3'
18 '-x+2/3, -y+1/3, -z+1/3'
19 '-x+y+2/3, y+1/3, z+5/6'
20 'x+2/3, x-y+1/3, z+5/6'
21 '-y+2/3, -x+1/3, z+5/6'
22 '-x+y+2/3, -x+1/3, z+1/3'
23 '-y+2/3, x-y+1/3, z+1/3'
24 'x+2/3, y+1/3, z+1/3'
25 'x-y+1/3, -y+2/3, -z+1/6'
26 '-x+1/3, -x+y+2/3, -z+1/6'
27 'y+1/3, x+2/3, -z+1/6'
28 'x-y+1/3, x+2/3, -z+2/3'
29 'y+1/3, -x+y+2/3, -z+2/3'
30 '-x+1/3, -y+2/3, -z+2/3'
31 '-x+y+1/3, y+2/3, z+1/6'
32 'x+1/3, x-y+2/3, z+1/6'
33 '-y+1/3, -x+2/3, z+1/6'
34 '-x+y+1/3, -x+2/3, z+2/3'
35 '-y+1/3, x-y+2/3, z+2/3'
36 'x+1/3, y+2/3, z+2/3'
loop_
_atom_type_symbol
_atom_type_oxidation_number
Ba2+ 2
Ru6+ 6
O2- -2
H1+ 1
loop_
_atom_site_label
_atom_site_type_symbol
_atom_site_symmetry_multiplicity
_atom_site_Wyckoff_symbol
_atom_site_fract_x
_atom_site_fract_y
_atom_site_fract_z
_atom_site_B_iso_or_equiv
_atom_site_occupancy
_atom_site_attached_hydrogens
Ba1 Ba2+ 6 b 0 0 0 . 1. 0
Ba2 Ba2+ 12 c 0 0 0.1637(1) . 1. 0
Ru1 Ru6+ 18 e 0.3461(2) 0 0.25 . 1. 0
O1 O2- 18 e 0.1706(9) 0 0.25 . 1. 0
O2 O2- 36 f 0.4377(8) 0.0041(9) 0.1910(3) . 1. 0
O3 O2- 36 f 0.4594(7) 0.2346(7) 0.2502(3) . 1. 0
loop_
_atom_site_aniso_label
_atom_site_aniso_type_symbol
_atom_site_aniso_beta_11
_atom_site_aniso_beta_22
_atom_site_aniso_beta_33
_atom_site_aniso_beta_12
_atom_site_aniso_beta_13
_atom_site_aniso_beta_23
Ba1 Ba2+ 0.00690(22) 0.00690(22) 0.00036(12) 0.00345(22) 0 0
Ba2 Ba2+ 0.00519(11) 0.00519(11) 0.00017(7) 0.002595(11) 0 0
Ru1 Ru6+ 0.00279(12) 0.00374(15) 0.00034(1) 0.00187(15) 0.00014(5) 0.00028(5)
O1 O2- 0.00432(99) 0.0086(17) 0.00053(15) 0.0043(17) 0 0
O2 O2- 0.0070(12) 0.0054(11) 0.00074(12) 0.00293(99) 0.00065(35) -.00039(36)
O3 O2- 0.00506(93) 0.00300(92) 0.00044(10) 0.00151(86) -.00007(30) -.00030(31)
#End of TTdata_168-ICSD
