
#(C) 2019 by FIZ Karlsruhe - Leibniz Institute for Information Infrastructure.  All rights reserved.
data_65931-ICSD
_database_code_ICSD 65931
_audit_creation_date 1990-12-27
_audit_update_record 2004-10-01
_chemical_name_systematic
'Oxonium cerium(III) cerium(IV) tetrakis(selenate(VI))'
_chemical_formula_structural '(H3 O) (Ce Ce (Se O4)4)'
_chemical_formula_sum 'H3 Ce2 O17 Se4'
_exptl_crystal_density_diffrn 4.03
_publ_section_title 'Crystal stucture of (H3 O) (CeIII CeIV (Se O4)4)'
loop_
_citation_id
_citation_journal_full
_citation_year
_citation_journal_volume
_citation_page_first
_citation_page_last
_citation_journal_id_ASTM
primary Kristallografiya 1989 34 1414 1418 KRISAJ
loop_
_publ_author_name
'Iskhakova, L.D.'
'Tursina, A.I.'
_cell_length_a 12.297(2)
_cell_length_b 16.267(2)
_cell_length_c 9.295(1)
_cell_angle_alpha 90.
_cell_angle_beta 129.51(1)
_cell_angle_gamma 90.
_cell_volume 1434.5
_cell_formula_units_Z 4
_symmetry_space_group_name_H-M 'C 1 c 1'
_symmetry_Int_Tables_number 9
_refine_ls_R_factor_all 0.03
loop_
_symmetry_equiv_pos_site_id
_symmetry_equiv_pos_as_xyz
1 'x, -y, z+1/2'
2 'x, y, z'
3 'x+1/2, -y+1/2, z+1/2'
4 'x+1/2, y+1/2, z'
loop_
_atom_type_symbol
_atom_type_oxidation_number
Ce4+ 4
Ce3+ 3
Se6+ 6
O2- -2
H1+ 1
loop_
_atom_site_label
_atom_site_type_symbol
_atom_site_symmetry_multiplicity
_atom_site_Wyckoff_symbol
_atom_site_fract_x
_atom_site_fract_y
_atom_site_fract_z
_atom_site_B_iso_or_equiv
_atom_site_occupancy
_atom_site_attached_hydrogens
Ce1 Ce4+ 4 a 0.1565(1) 0.03666(3) 0.4717(2) 0.961(8) 1. 0
Ce2 Ce3+ 4 a 0.6524(1) 0.13983(3) 0.4740(2) 1.015(8) 1. 0
Se1 Se6+ 4 a 0.046 0.16082(7) 0.674 1.09(2) 1. 0
Se2 Se6+ 4 a 0.4482(1) 0.94938(7) 0.4862(1) 1.01(2) 1. 0
Se3 Se6+ 4 a 0.3608(1) 0.45307(7) 0.4572(1) 0.99(2) 1. 0
Se4 Se6+ 4 a 0.25653(9) 0.83881(6) 0.7616(1) 0.85(2) 1. 0
O1 O2- 4 a 0.1537(7) 0.2341(3) 0.8191(9) 1.2(1) 1. 0
O2 O2- 4 a 0.087(1) 0.0715(6) 0.772(1) 2.5(2) 1. 0
O3 O2- 4 a 0.0669(7) 0.1545(5) 0.5209(9) 1.0(1) 1. 0
O4 O2- 4 a -.1162(2) 0.1797(6) 0.569(1) 1.6(2) 1. 0
O5 O2- 4 a 0.3275(6) 0.9104(4) 0.2778(8) 0.6(1) 1. 0
O6 O2- 4 a 0.3657(8) 0.0044(6) 0.545(1) 1.8(1) 1. 0
O7 O2- 4 a 0.5355(8) 0.0162(7) 0.478(1) 2.6(2) 1. 0
O8 O2- 4 a 0.5512(7) 0.8783(5) 0.6374(9) 1.3(1) 1. 0
O9 O2- 4 a 0.4649(8) 0.4091(6) 0.667(1) 1.6(1) 1. 0
O10 O2- 4 a 0.2817(8) 0.3757(6) 0.311(1) 1.7(1) 1. 0
O11 O2- 4 a 0.4438(8) 0.4926(6) 0.393(1) 1.7(1) 1. 0
O12 O2- 4 a 0.2492(7) 0.5149(5) 0.450(1) 1.5(2) 1. 0
O13 O2- 4 a 0.1423(8) 0.7739(6) 0.607(1) 1.7(2) 1. 0
O14 O2- 4 a 0.2546(9) 0.8430(6) 0.943(1) 2.3(2) 1. 0
O15 O2- 4 a 0.4162(7) 0.8185(6) 0.836(1) 1.6(2) 1. 0
O16 O2- 4 a 0.2082(7) 0.9337(5) 0.6680(9) 1.1(1) 1. 0
O17 O2- 4 a 0.288840(9) 0.2932(7) 0.665(1) 2.4(2) 1. 0
#End of TTdata_65931-ICSD
