
#(C) 2019 by FIZ Karlsruhe - Leibniz Institute for Information Infrastructure.  All rights reserved.
data_31142-ICSD
_database_code_ICSD 31142
_audit_creation_date 1986-08-12
_audit_update_record 2007-08-01
_chemical_name_systematic
'Octamagnesium tetrahydroxide dodecasilicate dodecahydrate'
_chemical_formula_structural 'Mg8 (O H)4 (Si12 O30) (H2 O)12'
_chemical_formula_sum 'H28 Mg8 O46 Si12'
_chemical_name_mineral Sepiolite
_exptl_crystal_density_diffrn 2.27
_publ_section_title 'Struktur und Entstehung des Sepioliths'
loop_
_citation_id
_citation_journal_full
_citation_year
_citation_journal_volume
_citation_page_first
_citation_page_last
_citation_journal_id_ASTM
primary 'Tschermaks Mineralogische und Petrographische Mitteilungen' 1956 6 120
140 MPMTAG
loop_
_publ_author_name
'Brauner, K.'
'Preisinger, A.'
_cell_length_a 13.4
_cell_length_b 26.8
_cell_length_c 5.28
_cell_angle_alpha 90.
_cell_angle_beta 90.
_cell_angle_gamma 90.
_cell_volume 1896.15
_cell_formula_units_Z 2
_symmetry_space_group_name_H-M 'P n c n'
_symmetry_Int_Tables_number 52
loop_
_symmetry_equiv_pos_site_id
_symmetry_equiv_pos_as_xyz
1 '-x+1/2, y+1/2, z+1/2'
2 'x+1/2, y+1/2, -z'
3 'x, -y, z+1/2'
4 '-x, -y, -z'
5 'x+1/2, -y+1/2, -z+1/2'
6 '-x+1/2, -y+1/2, z'
7 '-x, y, -z+1/2'
8 'x, y, z'
loop_
_atom_type_symbol
_atom_type_oxidation_number
Mg2+ 2
O2- -2
Si4+ 4
O2- -2
H1+ 1
loop_
_atom_site_label
_atom_site_type_symbol
_atom_site_symmetry_multiplicity
_atom_site_Wyckoff_symbol
_atom_site_fract_x
_atom_site_fract_y
_atom_site_fract_z
_atom_site_B_iso_or_equiv
_atom_site_occupancy
_atom_site_attached_hydrogens
Mg1 Mg2+ 4 c 0 0.028 0.25 . 1. 0
Mg2 Mg2+ 4 c 0 0.916 0.25 . 1. 0
Mg3 Mg2+ 4 c 0 0.14 0.25 . 1. 0
Mg4 Mg2+ 4 c 0 0.804 0.25 . 1. 0
O1 O2- 4 c 0 0.672 0.25 . 1. 0
O2 O2- 4 c 0 0.485 0.25 . 1. 0
O3 O2- 4 d 0.25 0.25 0.062(5) . 1. 0
Si1 Si4+ 8 e 0.208 0.028 0.562 . 1. 0
Si2 Si4+ 8 e 0.208 0.14 0.562 . 1. 0
Si3 Si4+ 8 e 0.208 0.196 0.062 . 1. 0
O4 O2- 8 e 0.084 0.028 0.562 . 1. 0
O5 O2- 8 e 0.084 0.14 0.562 . 1. 0
O6 O2- 8 e 0.084 0.196 0.062 . 1. 0
O7 O2- 8 e 0.24 0 0.312 . 1. 0
O8 O2- 8 e 0.24 0.084 0.562 . 1. 0
O9 O2- 8 e 0.24 0.168 0.312 . 1. 0
O10 O2- 8 e 0.24 0.168 0.812 . 1. 0
O11 O2- 8 e 0.084 0.084 0.062 . 1. 0
O12 O2- 8 e 0.083 0.25 0.5 . 1. 0
O13 O2- 8 e 0.083 0.416 0.916 . 1. 0
#End of TTdata_31142-ICSD
