
#(C) 2019 by FIZ Karlsruhe - Leibniz Institute for Information Infrastructure.  All rights reserved.
data_158616-ICSD
_database_code_ICSD 158616
_audit_creation_date 2008-08-01
_chemical_name_systematic 'Aluminium phosphate(V)'
_chemical_formula_structural 'Al (P O4)'
_chemical_formula_sum 'Al1 O4 P1'
_chemical_name_structure_type Berlinite-AlPO4
_chemical_name_mineral Berlinite
_exptl_crystal_density_diffrn 2.79
_cell_measurement_pressure 2500000.
_publ_section_title 'Structural properties of alpha-berlinite (Al P O4)'
loop_
_citation_id
_citation_journal_full
_citation_year
_citation_journal_volume
_citation_page_first
_citation_page_last
_citation_journal_id_ASTM
primary 'Physics and Chemistry of Minerals' 1998 25 222 226 PCMIDU
loop_
_publ_author_name
'Christie, D.M.'
'Chelikowsky, J.R.'
_cell_length_a 4.8335
_cell_length_b 4.8335
_cell_length_c 10.75
_cell_angle_alpha 90.
_cell_angle_beta 90.
_cell_angle_gamma 120.
_cell_volume 217.5
_cell_formula_units_Z 3
_symmetry_space_group_name_H-M 'P 31 2 1'
_symmetry_Int_Tables_number 152
loop_
_symmetry_equiv_pos_site_id
_symmetry_equiv_pos_as_xyz
1 'x-y, -y, -z+2/3'
2 '-x, -x+y, -z+1/3'
3 'y, x, -z'
4 '-x+y, -x, z+2/3'
5 '-y, x-y, z+1/3'
6 'x, y, z'
loop_
_atom_type_symbol
_atom_type_oxidation_number
Al3+ 3
P5+ 5
O2- -2
loop_
_atom_site_label
_atom_site_type_symbol
_atom_site_symmetry_multiplicity
_atom_site_Wyckoff_symbol
_atom_site_fract_x
_atom_site_fract_y
_atom_site_fract_z
_atom_site_B_iso_or_equiv
_atom_site_occupancy
_atom_site_attached_hydrogens
Al1 Al3+ 3 a 0.4596 0 0.3333 . 1. 0
P1 P5+ 3 b 0.4607 0 0.8333 . 1. 0
O1 O2- 6 c 0.41 0.3027 0.3925 . 1. 0
O2 O2- 6 c 0.4119 0.2708 0.8783 . 1. 0
#End of TTdata_158616-ICSD